variable      seednum equal  round(random(1,100000000,12345))

#-------initialize the model---------
units        lj
boundary     p p p
atom_style   atomic
dimension    2

lattice      sq2 ${rho}
lattice      sq2 0.783
Lattice spacing in x,y,z = 1.59821 1.59821 1.59821
region       box  block 0 50 0 50 -0.25 0.25
create_box   2 box
Created orthogonal box = (0 0 -0.399553) to (79.9106 79.9106 0.399553)
  2 by 1 by 1 MPI processor grid
create_atoms 1 box basis 1 1 basis 2 2
Created 5000 atoms
  create_atoms CPU = 0.000939131 secs

#-------interactions-------
mass   *   1.0
pair_style  lj/powerlaw 1.0
pair_coeff  1 1 1.0 1.0 2.0 1.0
pair_coeff  2 2 1.0 1.4 2.0 1.4
pair_coeff  1 2 1.0 1.2 2.0 1.2
#--------interaction over-----------

#----run------
timestep    0.002
variable    relaxstep  equal  100*${relaxt}/dt
variable    relaxstep  equal  100*100/dt
variable    dumpstep   equal  ${relaxstep}/200
variable    dumpstep   equal  5000000/200

neighbor     0.3 bin
neigh_modify every 1 delay 0 check yes
thermo       1000
thermo_style custom step temp press vol pe ke enthalpy density

variable  Thigh  equal  1.0
velocity  all  create  ${Thigh} ${seednum} dist gaussian units box
velocity  all  create  1 ${seednum} dist gaussian units box
velocity  all  create  1 86995310 dist gaussian units box
velocity  all  zero    linear

fix  2dtype  all enforce2d

fix   1  all nvt temp ${Thigh} ${Thigh} 0.2
fix   1  all nvt temp 1 ${Thigh} 0.2
fix   1  all nvt temp 1 1 0.2
run   500000
Neighbor list info ...
  update every 1 steps, delay 0 steps, check yes
  max neighbors/atom: 2000, page size: 100000
  master list distance cutoff = 1.7
  ghost atom cutoff = 1.7
  binsize = 0.85, bins = 95 95 1
  1 neighbor lists, perpetual/occasional/extra = 1 0 0
  (1) pair lj/powerlaw, perpetual
      attributes: half, newton on
      pair build: half/bin/atomonly/newton
      stencil: half/bin/2d/newton
      bin: standard
Per MPI rank memory allocation (min/avg/max) = 3.088 | 3.088 | 3.088 Mbytes
Step Temp Press Volume PotEng KinEng Enthalpy Density 
       0            1   0.82579302     6385.696 0.0033924956       0.9998    2.0578451        0.783 
    1000    1.0119091   0.90115038     6385.696   0.12598395    1.0117067    2.2885851        0.783 
    2000   0.99712471   0.88853861     6385.696    0.1262333   0.99692529    2.2579461        0.783 
    3000   0.97458928   0.86936837     6385.696   0.12560511   0.97439436    2.2103039        0.783 
    4000    1.0082623    0.8965276     6385.696   0.12267426    1.0080606    2.2757254        0.783 
    5000     1.006691   0.89664629     6385.696   0.12634844    1.0064896    2.2779802        0.783 
    6000    0.9815891   0.87578399     6385.696   0.12318279   0.98139278    2.2230737        0.783 
    7000     1.013018     0.902094     6385.696   0.12892868    1.0128154    2.2938437        0.783 
    8000   0.99230807   0.88484171     6385.696   0.12828039   0.99210961     2.250456        0.783 
    9000    1.0033448    0.8971407     6385.696   0.13170249    1.0031441    2.2806202        0.783 
   10000    1.0118838   0.89996811     6385.696   0.12505354    1.0116814    2.2861195        0.783 
   11000    1.0114503    0.9005248     6385.696   0.12957051     1.011248     2.290914        0.783 
   12000   0.98664789    0.8800059     6385.696   0.12611619   0.98645056    2.2364568        0.783 
   13000    1.0045311    0.8954116     6385.696   0.12687444    1.0043302    2.2747699        0.783 
   14000    1.0163698   0.90434468     6385.696   0.12620682    1.0161665    2.2973474        0.783 
   15000    1.0118453   0.90026717     6385.696   0.12633443    1.0116429    2.2877438        0.783 
   16000   0.98753173   0.88120707     6385.696   0.12302759   0.98733423    2.2357859        0.783 
   17000    1.0009177    0.8924104     6385.696   0.12680437    1.0007175    2.2672542        0.783 
   18000    1.0012748   0.89081452     6385.696   0.12380891    1.0010746    2.2625776        0.783 
   19000   0.99285842   0.88562265     6385.696   0.12763259   0.99265985    2.2513558        0.783 
   20000   0.96024941   0.86029162     6385.696   0.12715748   0.96005736     2.185927        0.783 
   21000    1.0011389   0.89141115     6385.696   0.12504917    1.0009387     2.264444        0.783 
   22000    1.0062646   0.89578741     6385.696   0.12780356    1.0060633    2.2779121        0.783 
   23000    1.0112775   0.90006021     6385.696   0.12499099    1.0110752    2.2855684        0.783 
   24000   0.98525087   0.88088514     6385.696   0.12814828   0.98505382    2.2382151        0.783 
   25000   0.99707802   0.88876887     6385.696   0.12748934    0.9968786    2.2594495        0.783 
   26000    1.0104324   0.89931268     6385.696   0.12651149    1.0102303    2.2852893        0.783 
   27000    1.0143927   0.90219445     6385.696   0.12840306    1.0141898    2.2948208        0.783 
   28000   0.99100228   0.88517666     6385.696   0.12619717   0.99080407    2.2474951        0.783 
   29000   0.99626131   0.88759951     6385.696   0.12677513   0.99606205    2.2564253        0.783 
   30000    1.0120445   0.90045249     6385.696    0.1268854    1.0118421    2.2887307        0.783 
   31000   0.98006407   0.87487526     6385.696   0.12635734   0.97986805    2.2235629        0.783 
   32000    1.0180808   0.90563462     6385.696   0.12460277    1.0178772    2.2991014        0.783 
   33000    1.0182976   0.90451556     6385.696    0.1249316     1.018094    2.2982179        0.783 
   34000    1.0064444   0.89647837     6385.696   0.12743747    1.0062431    2.2786083        0.783 
   35000   0.97950468   0.87432551     6385.696    0.1260298   0.97930877     2.221974        0.783 
   36000   0.99340886   0.88544853     6385.696   0.12768271   0.99321018    2.2517339        0.783 
   37000    1.0252801   0.91158514     6385.696   0.12815077     1.025075    2.3174469        0.783 
   38000   0.99550597   0.88578591     6385.696   0.12369621   0.99530687     2.250275        0.783 
   39000   0.98982395   0.88358589     6385.696   0.12605833   0.98962599    2.2441465        0.783 
   40000    1.0186722    0.9072742     6385.696   0.12873257    1.0184685    2.3059165        0.783 
   41000     1.009996   0.89822835     6385.696   0.12335952     1.009794    2.2803161        0.783 
   42000   0.98213808    0.8769744     6385.696   0.12626831   0.98194165    2.2282283        0.783 
   43000    1.0012957   0.89120101     6385.696   0.12491255    1.0010955    2.2641958        0.783 
   44000    1.0169056    0.9020167     6385.696   0.12199236    1.0167022    2.2906955        0.783 
   45000   0.97137589   0.86731986     6385.696   0.12371667   0.97118162    2.2025865        0.783 
   46000    1.0094328   0.89890346     6385.696   0.12811247    1.0092309    2.2853682        0.783 
   47000    1.0166148   0.90421162     6385.696   0.12708586    1.0164114    2.2983014        0.783 
   48000    1.0012857   0.89162795     6385.696   0.12608012    1.0010854    2.2658985        0.783 
   49000   0.96616774   0.86602104     6385.696   0.13393523   0.96597451    2.2059392        0.783 
   50000   0.99351848   0.88706862     6385.696   0.12690743   0.99331978    2.2531373        0.783 
   51000   0.99926804   0.88893789     6385.696   0.12258526   0.99906818    2.2569509        0.783 
   52000    1.0063895   0.89588271     6385.696   0.12388621    1.0061883    2.2742414        0.783 
   53000    1.0056908   0.89454494     6385.696   0.12510786    1.0054897     2.273056        0.783 
   54000   0.99369563    0.8863743     6385.696   0.12634013   0.99349689    2.2518604        0.783 
   55000    1.0105663   0.90012751     6385.696   0.12765471    1.0103642    2.2876071        0.783 
   56000   0.99064444   0.88378431     6385.696   0.12508218   0.99044632    2.2442441        0.783 
   57000    1.0030905   0.89326932     6385.696   0.12566445    1.0028898    2.2693836        0.783 
   58000    1.0105952    0.9001955     6385.696   0.12672186    1.0103931    2.2867899        0.783 
   59000    1.0077338   0.89818956     6385.696   0.12854736    1.0075322    2.2831927        0.783 
   60000   0.99535235   0.88774472     6385.696   0.12819603   0.99515328    2.2571229        0.783 
   61000   0.99303289   0.88443925     6385.696   0.12641462   0.99283428     2.248801        0.783 
   62000    1.0139062   0.90177123     6385.696   0.12734292    1.0137034    2.2927337        0.783 
   63000   0.99698388   0.88891487     6385.696   0.12857648   0.99678448     2.260629        0.783 
   64000   0.97814099   0.87403273     6385.696   0.12618795   0.97794536    2.2203948        0.783 
   65000   0.99240772   0.88529549     6385.696   0.12699761   0.99220924    2.2498524        0.783 
   66000   0.98234726   0.87702043     6385.696   0.12697389   0.98215079    2.2292019        0.783 
   67000    1.0085312    0.8960691     6385.696   0.12226228    1.0083295    2.2749968        0.783 
   68000   0.99332283    0.8853786     6385.696   0.12771185   0.99312417    2.2515877        0.783 
   69000   0.99562504   0.88844363     6385.696   0.12853063   0.99542591    2.2586227        0.783 
   70000    1.0084028    0.8975176     6385.696   0.12214735    1.0082011    2.2766034        0.783 
   71000    1.0023253   0.89212861     6385.696   0.12402742    1.0021248    2.2655246        0.783 
   72000   0.98787599   0.88142409     6385.696   0.12624943   0.98767842    2.2396291        0.783 
   73000    1.0014693    0.8913913     6385.696   0.12359807     1.001269    2.2632978        0.783 
   74000    1.0123236   0.90185022     6385.696   0.12738938    1.0121211    2.2912988        0.783 
   75000   0.99908315   0.89261849     6385.696    0.1293556   0.99888333     2.268237        0.783 
   76000   0.97108371   0.86914365     6385.696   0.12666114    0.9708895    2.2075681        0.783 
   77000    0.9986739   0.88899557     6385.696   0.12762026   0.99847416    2.2614655        0.783 
   78000     1.001211   0.89141733     6385.696   0.12581392    1.0010107    2.2652887        0.783 
   79000   0.98784201   0.88213442     6385.696   0.12813542   0.98764444    2.2423883        0.783 
   80000   0.98808739   0.88126277     6385.696    0.1240168   0.98788977    2.2374018        0.783 
   81000    1.0049444   0.89523096     6385.696   0.12926694    1.0047434    2.2773449        0.783 
   82000    1.0139934   0.90205767     6385.696   0.12777289    1.0137906    2.2936167        0.783 
   83000   0.98891726   0.88283316     6385.696   0.12858687   0.98871947    2.2448072        0.783 
   84000   0.98706123   0.88117375     6385.696   0.12757999   0.98686382    2.2398254        0.783 
   85000    1.0147648   0.90343925     6385.696    0.1299226    1.0145618    2.2983021        0.783 
   86000   0.97623842   0.87078127     6385.696   0.12499338   0.97604317    2.2131455        0.783 
   87000   0.98811665   0.88242347     6385.696    0.1273903   0.98791903    2.2422869        0.783 
   88000   0.97859707   0.87381092     6385.696   0.12615823   0.97840135    2.2205378        0.783 
   89000    1.0008398   0.89207165     6385.696   0.12557958    1.0006396    2.2655189        0.783 
   90000    1.0240399   0.90990378     6385.696   0.12628785     1.023835    2.3121967        0.783 
   91000   0.99838589   0.89030822     6385.696    0.1258364   0.99818621    2.2610701        0.783 
   92000   0.98695325   0.88154211     6385.696   0.12598474   0.98675586    2.2385926        0.783 
   93000   0.98440027   0.87913295     6385.696   0.12777502   0.98420339    2.2347536        0.783 
   94000    1.0024652   0.89359716     6385.696   0.12653415    1.0022647    2.2700468        0.783 
   95000    1.0072815   0.89740121     6385.696   0.12655525      1.00708    2.2797415        0.783 
   96000    0.9747481   0.87141546     6385.696    0.1263447   0.97455315    2.2138167        0.783 
   97000    1.0078593   0.89635658     6385.696   0.12608312    1.0076577    2.2785129        0.783 
   98000    1.0120627   0.90129089     6385.696   0.12697527    1.0118603    2.2899095        0.783 
   99000   0.98051845   0.87625193     6385.696   0.12675995   0.98032235     2.226178        0.783 
  100000   0.99774907   0.88948634     6385.696    0.1273738   0.99754952    2.2609212        0.783 
  101000    1.0198774   0.90653742     6385.696   0.12728786    1.0196734    2.3047357        0.783 
  102000    1.0022559    0.8931754     6385.696   0.12960023    1.0020554     2.272365        0.783 
  103000   0.98189228   0.87695329     6385.696    0.1274181   0.98169591    2.2291054        0.783 
  104000   0.98379138   0.87818652     6385.696   0.12721899   0.98359462      2.23238        0.783 
  105000    1.0072032   0.89786823     6385.696   0.12806177    1.0070018    2.2817663        0.783 
  106000    1.0067708   0.89608632     6385.696   0.12626731    1.0065694    2.2772637        0.783 
  107000   0.99555866   0.88873395     6385.696   0.12742742   0.99535955    2.2578239        0.783 
  108000    1.0000243   0.89228825     6385.696   0.12986583   0.99982429    2.2692664        0.783 
  109000    1.0296094   0.91331199     6385.696   0.12553617    1.0294035    2.3213662        0.783 
  110000   0.99626587   0.88841053     6385.696   0.12567871   0.99606662    2.2563692        0.783 
  111000   0.98087095   0.87386926     6385.696    0.1223691   0.98067478    2.2190966        0.783 
  112000   0.98205628   0.87812468     6385.696    0.1277627   0.98185987      2.23111        0.783 
  113000    1.0242753   0.91073372     6385.696   0.12739862    1.0240704    2.3146028        0.783 
  114000    0.9851626    0.8796148     6385.696   0.12806914   0.98496557    2.2364253        0.783 
  115000    0.9932889   0.88652146     6385.696   0.12770245   0.99309024     2.253004        0.783 
  116000    1.0080587   0.89919653     6385.696   0.13097805    1.0078571    2.2872343        0.783 
  117000   0.98690611   0.87862323     6385.696   0.12199315   0.98670873    2.2308261        0.783 
  118000   0.98454712   0.87980463     6385.696   0.12620573   0.98435021    2.2341889        0.783 
  119000    1.0043467   0.89453524     6385.696   0.12851793    1.0041459    2.2751098        0.783 
  120000    1.0239933   0.91070283     6385.696   0.12667536    1.0237885    2.3135582        0.783 
  121000   0.99762563     0.888803     6385.696   0.12640638   0.99742611    2.2589576        0.783 
  122000   0.95944346   0.85753629     6385.696   0.12248478   0.95925157    2.1769296        0.783 
  123000   0.99185121   0.88530884     6385.696   0.12723732   0.99165284    2.2495528        0.783 
  124000    1.0334714   0.91867214     6385.696   0.12714538    1.0332648    2.3336823        0.783 
  125000    1.0065018   0.89696211     6385.696   0.12778363    1.0063005    2.2796296        0.783 
  126000    1.0101226   0.89945366     6385.696   0.12688853    1.0099206    2.2855366        0.783 
  127000    1.0013346   0.89150583     6385.696   0.12792332    1.0011343    2.2676347        0.783 
  128000   0.96769404   0.86514855     6385.696   0.12704274    0.9675005    2.1994584        0.783 
  129000    0.9909507   0.88481507     6385.696   0.12982045   0.99075251     2.250605        0.783 
  130000    1.0124653   0.90201046     6385.696   0.13092246    1.0122629    2.2951782        0.783 
  131000   0.97257588   0.87181316     6385.696   0.12954716   0.97238136    2.2153553        0.783 
  132000   0.99309914   0.88663458     6385.696   0.12801303   0.99290052    2.2532693        0.783 
  133000    1.0172132   0.90536503     6385.696   0.12935828    1.0170097    2.3026452        0.783 
  134000    1.0074084   0.89602528     6385.696    0.1256669    1.0072069    2.2772228        0.783 
  135000   0.99332631   0.88549155     6385.696   0.12504617   0.99312765    2.2490698        0.783 
  136000   0.99685828   0.89095646     6385.696   0.13092132   0.99665891    2.2654557        0.783 
  137000    1.0107563   0.89837663     6385.696   0.12482725    1.0105541    2.2827334        0.783 
  138000   0.97786762   0.87438028     6385.696   0.12688307   0.97767204    2.2212604        0.783 
  139000   0.99503487   0.88457561     6385.696   0.12597152   0.99483586    2.2505336        0.783 
  140000     1.030227   0.91604124     6385.696   0.12952849     1.030021    2.3294616        0.783 
  141000   0.99718421   0.88942637     6385.696    0.1287146   0.99698477    2.2616207        0.783 
  142000   0.99850479   0.89126542     6385.696   0.12646022   0.99830509    2.2630353        0.783 
  143000    1.0060826   0.89481585     6385.696   0.12618215    1.0058814     2.274868        0.783 
  144000     1.002603   0.89519767     6385.696   0.12668008    1.0024025    2.2723746        0.783 
  145000    1.0000799   0.89169468     6385.696   0.12676581   0.99987984    2.2654639        0.783 
  146000    1.0038536   0.89576251     6385.696   0.12630751    1.0036528    2.2739737        0.783 
  147000   0.98517042   0.88178972     6385.696   0.12859669   0.98497339    2.2397383        0.783 
  148000    1.0129326   0.90300396     6385.696   0.12958112      1.01273    2.2955729        0.783 
  149000   0.96825555   0.86724617     6385.696   0.12974383    0.9680619    2.2053998        0.783 
  150000   0.99426533   0.88734839     6385.696   0.12627796   0.99406648    2.2536119        0.783 
  151000    1.0073233   0.89557528     6385.696   0.12534953    1.0071219    2.2762457        0.783 
  152000     1.004567   0.89473706     6385.696   0.12806404     1.004366    2.2751339        0.783 
  153000   0.98104664   0.87625069     6385.696   0.12641344   0.98085043     2.226358        0.783 
  154000    1.0043345   0.89549842     6385.696   0.13075315    1.0041337    2.2785629        0.783 
  155000    1.0312992   0.91616844     6385.696   0.12665206     1.031093    2.3278197        0.783 
  156000   0.99563322   0.88784371     6385.696   0.12829167    0.9954341    2.2576258        0.783 
  157000   0.98879846   0.88279036     6385.696   0.12904503    0.9886007    2.2450919        0.783 
  158000    1.0092325   0.89877899     6385.696   0.12752666    1.0090306    2.2844232        0.783 
  159000    1.0052942   0.89494191     6385.696   0.12817824    1.0050931    2.2762368        0.783 
  160000   0.97762529   0.87282144     6385.696   0.12487635   0.97742976    2.2170206        0.783 
  161000    1.0007115   0.89291931     6385.696   0.12902938    1.0005113     2.269923        0.783 
  162000    1.0035389    0.8950242     6385.696   0.12612931    1.0033382     2.272538        0.783 
  163000   0.99542828   0.88861708     6385.696   0.12894421   0.99522919    2.2590611        0.783 
  164000    1.0011274     0.890799     6385.696   0.12472933    1.0009272    2.2633308        0.783 
  165000    1.0071633   0.89624472     6385.696   0.12598879    1.0069618    2.2775799        0.783 
  166000   0.98432368    0.8768772     6385.696   0.12397571   0.98412682    2.2279968        0.783 
  167000   0.98741762   0.88187989     6385.696   0.12799802   0.98722014    2.2415015        0.783 
  168000    1.0248328   0.91107597     6385.696   0.12744955    1.0246279    2.3156483        0.783 
  169000    0.9834392   0.87712703     6385.696   0.12318311   0.98324251    2.2266389        0.783 
  170000   0.99270367   0.88516422     6385.696   0.12817412   0.99250513    2.2511572        0.783 
  171000   0.98418768   0.87875618     6385.696   0.12647746   0.98399084    2.2327623        0.783 
  172000    1.0080451   0.89601482     6385.696   0.12473862    1.0078435    2.2769178        0.783 
  173000    1.0022934   0.89169029     6385.696   0.12497873    1.0020929    2.2658843        0.783 
  174000    1.0001765   0.89061592     6385.696   0.12602262   0.99997642    2.2634396        0.783 
  175000   0.97454866    0.8715418     6385.696   0.12648412   0.97435375    2.2139181        0.783 
  176000    1.0080078   0.89725159     6385.696   0.13048954    1.0078062    2.2842109        0.783 
  177000   0.99948762   0.89037748     6385.696   0.12749906   0.99928772    2.2639228        0.783 
  178000   0.96324489   0.86269321     6385.696   0.12787581   0.96305225    2.1927074        0.783 
  179000    1.0033189   0.89443947     6385.696    0.1261665    1.0031182    2.2716085        0.783 
  180000    1.0064952    0.8965457     6385.696   0.12701559    1.0062939    2.2783232        0.783 
  181000   0.99191679   0.88302032     6385.696   0.12230026    0.9917184    2.2417585        0.783 
  182000   0.99561241   0.88688706     6385.696   0.12694568   0.99541329    2.2550372        0.783 
  183000    1.0223078   0.90919215     6385.696   0.12790737    1.0221033    2.3111757        0.783 
  184000   0.99852783   0.89146453     6385.696   0.12839619   0.99832813    2.2652486        0.783 
  185000   0.99110984   0.88461324     6385.696   0.12690684   0.99091162    2.2475927        0.783 
  186000    1.0003296   0.89382601     6385.696     0.127288    1.0001295    2.2689577        0.783 
  187000    1.0235515   0.90985487     6385.696   0.12878942    1.0233468    2.3141475        0.783 
  188000   0.98848357   0.88266767     6385.696   0.12467888   0.98828587    2.2402542        0.783 
  189000   0.98208759   0.87776977     6385.696   0.12678861   0.98189117     2.229714        0.783 
  190000    1.0013134    0.8926896     6385.696   0.12641307    1.0011132    2.2676151        0.783 
  191000    1.0111999   0.89990492     6385.696   0.12581406    1.0109977    2.2861156        0.783 
  192000   0.98325656   0.87639422     6385.696   0.12495196   0.98305991    2.2272893        0.783 
  193000     0.987147   0.88046775     6385.696   0.12530618   0.98694957    2.2367356        0.783 
  194000    1.0041436   0.89397028     6385.696    0.1272194    1.0039428    2.2728867        0.783 
  195000    1.0076229   0.89716118     6385.696   0.13018723    1.0074214    2.2834083        0.783 
  196000    1.0245656   0.91059774     6385.696   0.12780304    1.0243607    2.3151238        0.783 
  197000   0.99123004   0.88364861     6385.696   0.12485892   0.99103179     2.244433        0.783 
  198000   0.97099395   0.86629434     6385.696   0.12369928   0.97079975    2.2008775        0.783 
  199000    1.0081206   0.89768931     6385.696    0.1259775     1.007919    2.2803707        0.783 
  200000    1.0250334   0.91116827     6385.696   0.12575216    1.0248284    2.3142692        0.783 
  201000    1.0049412   0.89277153     6385.696   0.12526075    1.0047402    2.2701945        0.783 
  202000   0.99109243   0.88465412     6385.696   0.12824588   0.99089421    2.2489665        0.783 
  203000   0.98384727   0.87868411     6385.696   0.12934657    0.9836505     2.235199        0.783 
  204000    1.0205499   0.90678874     6385.696   0.12338581    1.0203458     2.301827        0.783 
  205000    1.0039209    0.8940305     6385.696    0.1259852    1.0037201    2.2715067        0.783 
  206000   0.97906348    0.8744238     6385.696   0.12642036   0.97886767     2.222049        0.783 
  207000   0.99284126   0.88418782     6385.696   0.12298274   0.99264269    2.2448564        0.783 
  208000    1.0147037   0.90335961     6385.696   0.12888161    1.0145008    2.2970984        0.783 
  209000    1.0032822   0.89602989     6385.696   0.12796534    1.0030815    2.2754018        0.783 
  210000    0.9816794   0.87701854     6385.696   0.12799517   0.98148307     2.229553        0.783 
  211000   0.98537885   0.87815969     6385.696   0.12554556   0.98518177    2.2322595        0.783 
  212000    1.0019311   0.89284315     6385.696   0.12727076    1.0017307    2.2692865        0.783 
  213000    1.0067862   0.89502721     6385.696    0.1238897    1.0065849    2.2735489        0.783 
  214000   0.98502779   0.88106668     6385.696   0.12790507   0.98483079    2.2379807        0.783 
  215000   0.99333789   0.88739345     6385.696    0.1294461   0.99313923    2.2559103        0.783 
  216000   0.98491254    0.8780883     6385.696   0.12289954   0.98471556    2.2290561        0.783 
  217000    1.0120559   0.90112661     6385.696   0.12728572    1.0118535    2.2900033        0.783 
  218000    1.0141968   0.90297726     6385.696   0.12881824     1.013994    2.2960399        0.783 
  219000    1.0004293   0.89152619     6385.696    0.1266993    1.0002292    2.2655316        0.783 
  220000   0.98780793   0.88001917     6385.696   0.12633876   0.98761037    2.2378561        0.783 
  221000   0.98235345   0.87493233     6385.696   0.12666697   0.98215698    2.2262343        0.783 
  222000    1.0081842   0.89665099     6385.696   0.12718288    1.0079826    2.2803136        0.783 
  223000    1.0265504    0.9111408     6385.696   0.12552354    1.0263451    2.3155223        0.783 
  224000   0.99102611    0.8827062     6385.696   0.12411374   0.99082791    2.2422803        0.783 
  225000   0.99585475   0.88510299     6385.696   0.12532193   0.99565558    2.2513772        0.783 
  226000     1.019176   0.90688908     6385.696   0.12617353    1.0189722    2.3033693        0.783 
  227000   0.98672328   0.88221259     6385.696   0.12887497   0.98652593    2.2421092        0.783 
  228000    1.0099156   0.89739188     6385.696   0.12232294    1.0097136    2.2781309        0.783 
  229000   0.98669843   0.88374023     6385.696    0.1308444   0.98650109    2.2460048        0.783 
  230000   0.99354956   0.88606856     6385.696   0.12438011   0.99335085    2.2493639        0.783 
  231000   0.99607747   0.88807969     6385.696   0.12785759   0.99587826    2.2579372        0.783 
  232000    1.0308847   0.91405182     6385.696   0.12553867    1.0306785    2.3235886        0.783 
  233000   0.98936661   0.88425666     6385.696   0.13017123   0.98916873    2.2486588        0.783 
  234000    1.0077938   0.89850778     6385.696   0.12817932    1.0075922    2.2832911        0.783 
  235000    1.0032544   0.89519097     6385.696   0.12957581    1.0030537     2.275913        0.783 
  236000    1.0016553   0.89176979     6385.696   0.12723049    1.0014549    2.2675996        0.783 
  237000   0.96968881   0.86833488     6385.696   0.13255396   0.96949487    2.2110334        0.783 
  238000     1.006811   0.89729666     6385.696   0.12790989    1.0066096    2.2804923        0.783 
  239000   0.99846143   0.88962931     6385.696   0.12583792   0.99826174    2.2602801        0.783 
  240000    1.0191101   0.90862378     6385.696   0.13045742    1.0189062    2.3098027        0.783 
  241000    0.9953569   0.88657346     6385.696   0.12739881   0.99515783    2.2548344        0.783 
  242000   0.99934589   0.89002448     6385.696    0.1249246   0.99914602    2.2607558        0.783 
  243000    1.0139131   0.90123245     6385.696   0.12691768    1.0137104    2.2916273        0.783 
  244000    1.0076769   0.89717907     6385.696   0.12768524    1.0074754    2.2809832        0.783 
  245000    1.0107772   0.90030157     6385.696   0.12729434     1.010575    2.2876798        0.783 
  246000   0.97328664   0.86910645     6385.696   0.12358274   0.97309199    2.2066447        0.783 
  247000   0.99727692   0.89111148     6385.696   0.12760582   0.99707746    2.2627567        0.783 
  248000    1.0098764   0.89757665     6385.696   0.12651151    1.0096744    2.2825162        0.783 
  249000    1.0105226    0.8986513     6385.696   0.12609065    1.0103204    2.2841139        0.783 
  250000   0.98836183    0.8811373     6385.696   0.12694528   0.98816416    2.2404444        0.783 
  251000   0.99458393   0.88719806     6385.696   0.12742665   0.99438502    2.2548871        0.783 
  252000   0.99069093   0.88360727     6385.696   0.12902416    0.9904928    2.2480064        0.783 
  253000    1.0293466   0.91451849     6385.696   0.12902092    1.0291407    2.3261291        0.783 
  254000   0.99738143   0.89072751     6385.696   0.12845323   0.99718196    2.2632182        0.783 
  255000   0.98005518   0.87491091     6385.696   0.12639734   0.97985917    2.2236395        0.783 
  256000     1.008604   0.89811978     6385.696   0.12585257    1.0084023    2.2812789        0.783 
  257000    1.0089977   0.90015309     6385.696   0.12878719    1.0087959    2.2872039        0.783 
  258000   0.97491468   0.87277018     6385.696   0.12739169    0.9747197    2.2167604        0.783 
  259000   0.99774101   0.88874796     6385.696   0.12659611   0.99754146    2.2591924        0.783 
  260000    1.0148502   0.90094895     6385.696   0.12383778    1.0146472    2.2891222        0.783 
  261000    1.0053971   0.89513765     6385.696   0.12612798     1.005196    2.2745394        0.783 
  262000   0.99915948    0.8907179     6385.696   0.12763866   0.99895965    2.2641691        0.783 
  263000   0.99372447   0.88402151     6385.696    0.1234255   0.99352572    2.2459698        0.783 
  264000   0.99485143   0.88738708     6385.696    0.1263324   0.99465246    2.2543017        0.783 
  265000   0.99348379    0.8867067     6385.696    0.1290097   0.99328509    2.2547427        0.783 
  266000   0.98552139   0.87813337     6385.696   0.12525743   0.98532429    2.2320803        0.783 
  267000     1.002556   0.89200292     6385.696   0.12436146    1.0023555    2.2659289        0.783 
  268000    1.0068557   0.89678068     6385.696    0.1268993    1.0066543    2.2788674        0.783 
  269000   0.99847037   0.89100411     6385.696   0.12746908   0.99827067     2.263676        0.783 
  270000   0.98731901   0.88064305     6385.696   0.12538604   0.98712155    2.2372114        0.783 
  271000   0.99404919   0.88545161     6385.696   0.12497727   0.99385038    2.2496726        0.783 
  272000      1.00984    0.8992815     6385.696   0.12849252    1.0096381    2.2866382        0.783 
  273000   0.97495601   0.87305609     6385.696    0.1270074   0.97476102    2.2167826        0.783 
  274000    1.0153536   0.90536229     6385.696   0.12770359    1.0151506    2.2991278        0.783 
  275000     1.001555   0.89459104     6385.696   0.13202934    1.0013547    2.2759013        0.783 
  276000   0.97798499   0.87362418     6385.696   0.12904951   0.97778939    2.2225786        0.783 
  277000    1.0107901    0.8994866     6385.696   0.12927949     1.010588    2.2886371        0.783 
  278000    1.0059536   0.89516866     6385.696   0.12634659    1.0057524    2.2753539        0.783 
  279000   0.98557971   0.87882108     6385.696   0.12534434   0.98538259    2.2331038        0.783 
  280000    1.0144485   0.90487409     6385.696   0.13005609    1.0142456    2.2999519        0.783 
  281000    1.0137833   0.90145132     6385.696   0.12512667    1.0135805     2.289986        0.783 
  282000   0.98157781    0.8763688     6385.696   0.12654985   0.98138149    2.2271763        0.783 
  283000     1.004767   0.89431967     6385.696   0.12896768    1.0045661    2.2757045        0.783 
  284000    1.0174322   0.90280956     6385.696   0.12530936    1.0172287    2.2955516        0.783 
  285000   0.98194541   0.87735332     6385.696    0.1264136   0.98174902    2.2286649        0.783 
  286000   0.99472199   0.88641749     6385.696    0.1255714   0.99452305     2.252173        0.783 
  287000    1.0211151   0.90532788     6385.696   0.12682103    1.0209108    2.3039616        0.783 
  288000   0.99465037   0.88691349     6385.696   0.13015507   0.99445144    2.2573185        0.783 
  289000   0.99527381   0.88902977     6385.696   0.12837519   0.99507476    2.2588647        0.783 
  290000    1.0066943   0.89826158     6385.696   0.12991045    1.0064929    2.2836085        0.783 
  291000   0.99362202   0.88807475     6385.696   0.12994172    0.9934233    2.2575601        0.783 
  292000    1.0038868   0.89345125     6385.696   0.12541391    1.0036861    2.2701616        0.783 
  293000    1.0029087   0.89276116     6385.696   0.12670036    1.0027082    2.2695888        0.783 
  294000    1.0023735   0.89321774     6385.696   0.12713655    1.0021731     2.270073        0.783 
  295000    1.0041774   0.89240063     6385.696   0.12501315    1.0039765    2.2687095        0.783 
  296000   0.99155995   0.88463158     6385.696   0.12388459   0.99136164    2.2450439        0.783 
  297000   0.99733347   0.89255197     6385.696   0.13065464     0.997134    2.2677018        0.783 
  298000   0.99880649   0.88862134     6385.696   0.12412878   0.99860673    2.2576287        0.783 
  299000    1.0067431   0.89464324     6385.696   0.12532552    1.0065417    2.2744512        0.783 
  300000    0.9998348   0.89020396     6385.696    0.1275338   0.99963484     2.264083        0.783 
  301000   0.99724425   0.88989785     6385.696   0.12723015    0.9970448    2.2607984        0.783 
  302000   0.97793084   0.87424566     6385.696   0.12731989   0.97773525    2.2215886        0.783 
  303000    1.0030827   0.89374456     6385.696   0.12874796    1.0028821    2.2730662        0.783 
  304000    1.0096839    0.8991047     6385.696   0.12873492    1.0094819    2.2864987        0.783 
  305000   0.98219153   0.87876025     6385.696   0.12807457   0.98199509    2.2323688        0.783 
  306000    1.0059517   0.89684481     6385.696   0.12928687    1.0057505     2.280433        0.783 
  307000    1.0099795   0.89870877     6385.696   0.12435248    1.0097775    2.2819062        0.783 
  308000   0.99861312   0.89059551     6385.696   0.12479599    0.9984134    2.2606238        0.783 
  309000   0.99656048     0.888285     6385.696   0.12689875   0.99636117    2.2577235        0.783 
  310000    1.0218327   0.90729065     6385.696   0.12596284    1.0216284    2.3063277        0.783 
  311000   0.97718243   0.87420793     6385.696   0.12747969   0.97698699    2.2209519        0.783 
  312000   0.99471319   0.88760893     6385.696   0.12887496   0.99451425    2.2569894        0.783 
  313000    1.0033239   0.89364055     6385.696   0.12595209    1.0031232    2.2703787        0.783 
  314000    1.0010461    0.8918458     6385.696   0.12752161    1.0008459    2.2673787        0.783 
  315000   0.99423619   0.88835454     6385.696    0.1289197   0.99403734    2.2575095        0.783 
  316000    0.9843868   0.87815158     6385.696   0.12445992   0.98418993    2.2301716        0.783 
  317000    1.0129742   0.90093183     6385.696   0.12391085    1.0127716    2.2872978        0.783 
  318000   0.98180653   0.87644705     6385.696   0.12560506   0.98161017    2.2265601        0.783 
  319000    1.0248702   0.91148189     6385.696   0.12904418    1.0246652    2.3177986        0.783 
  320000    1.0017756   0.89356422     6385.696   0.12560792    1.0015753    2.2683891        0.783 
  321000   0.98658557   0.88261539     6385.696    0.1305704   0.98638825    2.2441814        0.783 
  322000   0.99764265   0.88778512     6385.696   0.12666113   0.99744313    2.2579294        0.783 
  323000    1.0022048   0.89309558     6385.696    0.1256489    1.0020043    2.2682606        0.783 
  324000    1.0045066   0.89404588     6385.696    0.1267064    1.0043057    2.2728332        0.783 
  325000   0.99680601   0.88874344     6385.696   0.12565772   0.99660665    2.2573135        0.783 
  326000   0.98944335   0.87989545     6385.696   0.12218265   0.98924546    2.2351771        0.783 
  327000    1.0125106   0.90037116     6385.696   0.12528407    1.0123081    2.2874915        0.783 
  328000   0.98548171   0.87959849     6385.696   0.12664104   0.98528461    2.2352954        0.783 
  329000   0.98641695   0.87901205     6385.696   0.12485122   0.98621967    2.2336916        0.783 
  330000   0.98360901   0.87875516     6385.696   0.12856488   0.98341229    2.2342698        0.783 
  331000    1.0153855   0.90540569     6385.696   0.13134384    1.0151824    2.3028554        0.783 
  332000   0.99750624   0.89050037     6385.696   0.13063804   0.99730673    2.2652377        0.783 
  333000    1.0044493   0.89417081     6385.696   0.12616482    1.0042485    2.2723939        0.783 
  334000   0.99933852   0.88921094     6385.696   0.12455884   0.99913865    2.2593437        0.783 
  335000   0.98417397   0.87955529     6385.696   0.13094381   0.98397714    2.2382355        0.783 
  336000     1.011908   0.89972303     6385.696   0.12386008    1.0117057    2.2846373        0.783 
  337000    0.9974867   0.89032412     6385.696   0.12564997   0.99728721     2.260005        0.783 
  338000   0.98984775   0.88087999     6385.696   0.12663287   0.98964978     2.241289        0.783 
  339000    1.0018749   0.89257899     6385.696   0.12714996    1.0016745    2.2687721        0.783 
  340000    1.0381821   0.92145241     6385.696   0.12747474    1.0379745    2.3422722        0.783 
  341000   0.99254746   0.88327985     6385.696   0.12682774   0.99234895     2.247248        0.783 
  342000   0.98353125   0.87870872     6385.696   0.12926907   0.98333454     2.234837        0.783 
  343000   0.98877166   0.88188117     6385.696   0.12445838    0.9885739    2.2393173        0.783 
  344000   0.97571528   0.87322867     6385.696   0.12806254   0.97552014    2.2188173        0.783 
  345000    1.0019763   0.89205645     6385.696   0.12531991    1.0017759    2.2663761        0.783 
  346000    1.0197472   0.90646386     6385.696    0.1257527    1.0195433    2.3029765        0.783 
  347000    1.0145393   0.90367895     6385.696   0.12776683    1.0143364    2.2962271        0.783 
  348000   0.99357992   0.88559765     6385.696   0.12554971    0.9933812    2.2499624        0.783 
  349000   0.99429192   0.88645364     6385.696   0.12688475   0.99409306    2.2531025        0.783 
  350000    1.0128249   0.90387207     6385.696   0.12761063    1.0126223    2.2946034        0.783 
  351000    1.0173549   0.90630846     6385.696   0.12969146    1.0171514     2.304325        0.783 
  352000    1.0177462   0.90540157     6385.696    0.1272449    1.0175427    2.3011114        0.783 
  353000    1.0156346   0.90294169     6385.696   0.12746435    1.0154315    2.2960781        0.783 
  354000     1.011792   0.90188513     6385.696   0.12856089    1.0115897    2.2919834        0.783 
  355000   0.98334331   0.87778569     6385.696   0.12622106   0.98314664    2.2304222        0.783 
  356000    1.0057156   0.89575184     6385.696   0.12818629    1.0055145    2.2777006        0.783 
  357000    1.0081818   0.89648079     6385.696   0.12524096    1.0079802    2.2781519        0.783 
  358000   0.99118679   0.88386388     6385.696   0.12773027   0.99098855     2.247536        0.783 
  359000   0.99236916   0.88576268     6385.696    0.1279369   0.99217069    2.2513498        0.783 
  360000   0.96424369   0.86347474     6385.696   0.12838935   0.96405084    2.1952176        0.783 
  361000    1.0057487   0.89513518     6385.696   0.12411927    1.0055475    2.2728791        0.783 
  362000    1.0054546   0.89471345     6385.696    0.1251819    1.0052535    2.2731091        0.783 
  363000    1.0231772   0.90874479     6385.696   0.12538824    1.0229725    2.3089544        0.783 
  364000    1.0046565   0.89478801     6385.696   0.12407934    1.0044555    2.2713037        0.783 
  365000   0.98748287   0.88163761     6385.696   0.12835849   0.98728538    2.2416178        0.783 
  366000    0.9728916   0.87032146     6385.696   0.12800714   0.97269702    2.2122258        0.783 
  367000     1.008259   0.89823473     6385.696   0.12753251    1.0080573    2.2827606        0.783 
  368000    1.0056302   0.89509555     6385.696   0.12476678    1.0054291    2.2733575        0.783 
  369000    1.0066651   0.89599935     6385.696   0.12655864    1.0064638    2.2773383        0.783 
  370000    1.0429186   0.92379535     6385.696   0.12397352    1.0427101    2.3464988        0.783 
  371000    1.0047149   0.89430805     6385.696   0.12760368     1.004514    2.2742735        0.783 
  372000   0.99280328   0.88455767     6385.696   0.12497263   0.99260472    2.2472806        0.783 
  373000   0.99505826   0.88543399     6385.696   0.12328609   0.99485924    2.2489678        0.783 
  374000    1.0223593     0.907832     6385.696   0.12604019    1.0221548    2.3076228        0.783 
  375000   0.99501876   0.88720247     6385.696   0.12889491   0.99481976    2.2567957        0.783 
  376000   0.98873829   0.88019537     6385.696   0.12456788   0.98854054    2.2372404        0.783 
  377000    1.0325661   0.91527618     6385.696   0.12673135    1.0323596    2.3280261        0.783 
  378000   0.99474086   0.88687085     6385.696   0.12372211   0.99454191    2.2509216        0.783 
  379000    1.0057779   0.89572067     6385.696   0.12695222    1.0055767    2.2764889        0.783 
  380000   0.99965215   0.89083602     6385.696   0.12739083   0.99945222    2.2645647        0.783 
  381000   0.98086861   0.87670952     6385.696   0.12651332   0.98067244    2.2268659        0.783 
  382000    1.0176912   0.90477929     6385.696   0.12702305    1.0174877    2.3000398        0.783 
  383000    0.9906129    0.8817667     6385.696   0.12562593   0.99041477    2.2421795        0.783 
  384000   0.99699323   0.88818492     6385.696   0.12253579   0.99679384    2.2536654        0.783 
  385000   0.99747795   0.88947041     6385.696   0.12765613   0.99727845    2.2609121        0.783 
  386000     1.000676   0.89069518     6385.696    0.1283292    1.0004759    2.2663468        0.783 
  387000    1.0096251   0.89887719     6385.696   0.12460269    1.0094232    2.2820172        0.783 
  388000   0.98070362   0.87725028     6385.696   0.13215297   0.98050748    2.2330312        0.783 
  389000    0.9937159     0.887498     6385.696   0.13012038   0.99351716     2.257096        0.783 
  390000    1.0064597    0.8952205     6385.696   0.12474691    1.0062584    2.2743265        0.783 
  391000    1.0018283   0.89478581     6385.696   0.12979483     1.001628    2.2741888        0.783 
  392000    0.9979448   0.88902869     6385.696    0.1266486   0.99774521    2.2598072        0.783 
  393000   0.99675918   0.88809557     6385.696   0.12640015   0.99655983    2.2571817        0.783 
  394000   0.98958564   0.88137512     6385.696   0.12719665   0.98938772    2.2422231        0.783 
  395000    0.9981424   0.88951115     6385.696   0.12448016   0.99794277    2.2584525        0.783 
  396000    0.9933532   0.88701853     6385.696    0.1275056   0.99315453    2.2535063        0.783 
  397000   0.99980459     0.892852     6385.696   0.12694697   0.99960463    2.2668479        0.783 
  398000   0.97395142   0.87298327     6385.696   0.12843633   0.97375662    2.2171141        0.783 
  399000   0.99866075   0.88953272     6385.696   0.12596274   0.99846101    2.2604809        0.783 
  400000   0.99565203   0.88864271     6385.696   0.12742607    0.9954529    2.2577994        0.783 
  401000    1.0319964   0.91512662     6385.696   0.12502372      1.03179    2.3255578        0.783 
  402000   0.99537659   0.88679247     6385.696    0.1234973   0.99517752    2.2512323        0.783 
  403000   0.99239286   0.88515783     6385.696    0.1250458   0.99219438      2.24771        0.783 
  404000    1.0172125   0.90664011     6385.696   0.13009616    1.0170091    2.3050109        0.783 
  405000   0.99928096   0.89092632     6385.696   0.12642616    0.9990811    2.2633442        0.783 
  406000   0.96230491   0.86133969     6385.696   0.12776975   0.96211245    2.1899329        0.783 
  407000    1.0094481   0.89770844     6385.696   0.12429623    1.0092462     2.280041        0.783 
  408000   0.99300755   0.88640627     6385.696   0.12579491   0.99280895    2.2506681        0.783 
  409000   0.99052366   0.88279565     6385.696   0.12561804   0.99032555    2.2433965        0.783 
  410000   0.99411758   0.88705359     6385.696   0.13001608   0.99391876    2.2568258        0.783 
  411000     1.016337   0.90221242     6385.696   0.12322133    1.0161338    2.2916059        0.783 
  412000   0.99062727   0.88294924     6385.696   0.12427924   0.99042915    2.2423575        0.783 
  413000   0.99166675   0.88445978     6385.696    0.1259955   0.99146842    2.2470422        0.783 
  414000   0.98929021   0.88177528     6385.696   0.12586566   0.98909235    2.2411078        0.783 
  415000    1.0067467     0.897329     6385.696    0.1275944    1.0065454    2.2801538        0.783 
  416000    1.0002142   0.89108196     6385.696   0.12578939    1.0000142    2.2638393        0.783 
  417000   0.99447846   0.88730949     6385.696   0.12535997   0.99427956    2.2528573        0.783 
  418000   0.99944427   0.89057872     6385.696   0.12618164   0.99924438     2.262819        0.783 
  419000    1.0064386   0.89645546     6385.696    0.1263848    1.0062373    2.2775205        0.783 
  420000    1.0111599   0.89949911     6385.696   0.12661901    1.0109577    2.2863623        0.783 
  421000   0.98756771   0.88199528     6385.696   0.12657331    0.9873702    2.2403743        0.783 
  422000    1.0224753   0.90990438     6385.696   0.12876713    1.0222708    2.3131125        0.783 
  423000   0.98428156   0.87883714     6385.696   0.12540849   0.98408471    2.2318906        0.783 
  424000    1.0070047   0.89507689     6385.696   0.12387278    1.0068033    2.2738139        0.783 
  425000    1.0090308   0.89874371     6385.696   0.12748963     1.008829    2.2841394        0.783 
  426000   0.98580618   0.87964774     6385.696   0.12576997   0.98560902    2.2348116        0.783 
  427000    1.0037737   0.89390864     6385.696   0.12671828    1.0035729    2.2719369        0.783 
  428000    1.0123417   0.90085761     6385.696   0.12593906    1.0121393    2.2885989        0.783 
  429000    1.0086779   0.89845929     6385.696   0.12539776    1.0084762    2.2813315        0.783 
  430000   0.98322432   0.87893012     6385.696   0.12886512   0.98302768    2.2344089        0.783 
  431000   0.98272777   0.87557766     6385.696   0.12565237   0.98253123    2.2264182        0.783 
  432000    1.0000006   0.89179028     6385.696   0.12487353    0.9998006    2.2636145        0.783 
  433000    1.0100874   0.90007475     6385.696   0.12431886    1.0098854     2.283725        0.783 
  434000    1.0121341   0.90259999     6385.696   0.12849943    1.0119317     2.293177        0.783 
  435000   0.97830381   0.87358387     6385.696   0.12659438   0.97810814    2.2203907        0.783 
  436000   0.99496518   0.88734921     6385.696    0.1269448   0.99476618    2.2549795        0.783 
  437000    1.0324825   0.91576203     6385.696   0.12491658     1.032276    2.3267482        0.783 
  438000   0.99249893   0.88709454     6385.696   0.12959181   0.99230043    2.2548355        0.783 
  439000   0.98976418   0.88317329     6385.696    0.1283162   0.98956622    2.2458177        0.783 
  440000    1.0195239   0.90525314     6385.696   0.12780769      1.01932    2.3032619        0.783 
  441000   0.98940269   0.88266227     6385.696   0.12750593   0.98920481    2.2439933        0.783 
  442000   0.98167008   0.87689778     6385.696   0.12845255   0.98147374    2.2298468        0.783 
  443000   0.99485036   0.88631276     6385.696   0.12532112   0.99465139    2.2519173        0.783 
  444000    1.0161663   0.90268925     6385.696   0.12474607     1.015963    2.2935689        0.783 
  445000    1.0119683   0.89992122     6385.696   0.12601013    1.0117659    2.2871007        0.783 
  446000   0.98921784   0.88332576     6385.696    0.1256075      0.98902    2.2427575        0.783 
  447000   0.99508402   0.88874129     6385.696   0.12903722     0.994885    2.2589686        0.783 
  448000    1.0028619   0.89116719     6385.696   0.12516359    1.0026613    2.2659694        0.783 
  449000    1.0003114   0.89025215     6385.696   0.12554006    1.0001114    2.2626273        0.783 
  450000   0.99105962   0.88519358     6385.696   0.12852214   0.99086141     2.249899        0.783 
  451000   0.99699392    0.8884194     6385.696   0.12618156   0.99679452    2.2576113        0.783 
  452000    1.0308362   0.91625138     6385.696   0.12650385      1.03063    2.3273144        0.783 
  453000    1.0029456   0.89321396     6385.696    0.1273778     1.002745    2.2708814        0.783 
  454000   0.97941114   0.87629808     6385.696   0.12960391   0.97921526    2.2279738        0.783 
  455000    1.0211277   0.90757245     6385.696   0.12509734    1.0209235    2.3051172        0.783 
  456000    1.0059297   0.89556359     6385.696   0.12469145    1.0057285    2.2741793        0.783 
  457000   0.99058467   0.88129926     6385.696   0.12517697   0.99038656    2.2411054        0.783 
  458000   0.98459985   0.87910668     6385.696   0.12792752   0.98440293    2.2350721        0.783 
  459000   0.98508128   0.88008316     6385.696   0.12848205   0.98488426     2.237355        0.783 
  460000    1.0235241   0.90861382     6385.696   0.12601672    1.0233194    2.3097625        0.783 
  461000   0.99217292   0.88285082     6385.696   0.12428328   0.99197449    2.2437812        0.783 
  462000   0.99351658   0.88696667     6385.696   0.12653722   0.99331788     2.252635        0.783 
  463000    1.0235454   0.90875891     6385.696   0.12781949    1.0233407    2.3117718        0.783 
  464000    1.0074926   0.89782876     6385.696   0.12824768    1.0072911    2.2821911        0.783 
  465000    1.0310553   0.91449564     6385.696   0.12571006    1.0308491    2.3244974        0.783 
  466000   0.98202608    0.8785477     6385.696   0.12840376   0.98182967    2.2322611        0.783 
  467000    1.0037399   0.89407941     6385.696   0.12520192    1.0035391    2.2706049        0.783 
  468000    0.9945536   0.88695944     6385.696   0.12810556   0.99435469    2.2552309        0.783 
  469000   0.98940204   0.88230614     6385.696   0.12495933   0.98920416    2.2409913        0.783 
  470000    1.0234866   0.91229314     6385.696   0.12976809    1.0232819    2.3181754        0.783 
  471000   0.98899029   0.88282686     6385.696    0.1277392   0.98879249    2.2440245        0.783 
  472000    0.9955966   0.88865377     6385.696   0.12926926   0.99539748    2.2596013        0.783 
  473000    1.0317749   0.91770437     6385.696   0.12950228    1.0315685     2.333107        0.783 
  474000   0.99886823   0.88968131     6385.696   0.12741997   0.99866846    2.2623353        0.783 
  475000   0.99233796   0.88525612     6385.696   0.12909878    0.9921395    2.2518336        0.783 
  476000    0.9776049   0.87374949     6385.696   0.12757426   0.97740938    2.2208834        0.783 
  477000    1.0056652   0.89652742     6385.696   0.12800498     1.005464    2.2784593        0.783 
  478000    1.0144877   0.90250746     6385.696   0.12588375    1.0142848    2.2927962        0.783 
  479000    1.0012663   0.89221823     6385.696   0.12708957    1.0010661    2.2676425        0.783 
  480000   0.99637666   0.88811851     6385.696   0.12722236   0.99617739    2.2576507        0.783 
  481000    1.0317792   0.91533885     6385.696   0.12671829    1.0315728    2.3273062        0.783 
  482000    1.0101081   0.89572077     6385.696   0.12533359    1.0099061    2.2791998        0.783 
  483000    1.0042569   0.89441738     6385.696   0.12705622    1.0040561    2.2734078        0.783 
  484000   0.98477039   0.87986208     6385.696   0.12870611   0.98457344    2.2369859        0.783 
  485000   0.98899939   0.88169761     6385.696   0.12477701   0.98880159    2.2396292        0.783 
  486000    1.0158548   0.90452995     6385.696   0.12695723    1.0156516    2.2978195        0.783 
  487000   0.97479954   0.86978865     6385.696    0.1252862   0.97460459     2.210732        0.783 
  488000    1.0023703   0.89225647     6385.696   0.12622132    1.0021699    2.2679269        0.783 
  489000    1.0178992   0.90476539     6385.696   0.12536231    1.0176956    2.2985693        0.783 
  490000    1.0001105   0.88963709     6385.696   0.12528879   0.99991048    2.2613897        0.783 
  491000   0.98732324   0.88083855     6385.696   0.12615607   0.98712578    2.2382353        0.783 
  492000    1.0102414   0.89888881     6385.696   0.12736379    1.0100394    2.2854093        0.783 
  493000   0.96067777   0.86102807     6385.696   0.12787738   0.96048564    2.1880157        0.783 
  494000   0.99549876   0.88746677     6385.696   0.12612754   0.99529966    2.2548458        0.783 
  495000   0.99550767   0.88474892     6385.696   0.12414041   0.99530856    2.2493965        0.783 
  496000    1.0225461   0.90847992     6385.696   0.12824403    1.0223416     2.310841        0.783 
  497000    1.0048143   0.89585336     6385.696   0.12491878    1.0046133    2.2736615        0.783 
  498000   0.99675076   0.88718053     6385.696   0.12584691   0.99655141    2.2554514        0.783 
  499000    1.0058664   0.89484571     6385.696   0.12333326    1.0056653    2.2718411        0.783 
  500000    1.0153037   0.90355961     6385.696   0.12744456    1.0151007    2.2965166        0.783 
Loop time of 176.532 on 2 procs for 500000 steps with 5000 atoms

Performance: 489428.348 tau/day, 2832.340 timesteps/s
99.8% CPU use with 2 MPI tasks x no OpenMP threads

MPI task timing breakdown:
Section |  min time  |  avg time  |  max time  |%varavg| %total
---------------------------------------------------------------
Pair    | 128.39     | 128.87     | 129.36     |   4.2 | 73.00
Neigh   | 10.646     | 10.803     | 10.96      |   4.8 |  6.12
Comm    | 6.8297     | 7.5329     | 8.2361     |  25.6 |  4.27
Output  | 0.012069   | 0.014098   | 0.016128   |   1.7 |  0.01
Modify  | 23.672     | 23.762     | 23.851     |   1.8 | 13.46
Other   |            | 5.547      |            |       |  3.14

Nlocal:    2500 ave 2539 max 2461 min
Histogram: 1 0 0 0 0 0 0 0 0 1
Nghost:    321.5 ave 324 max 319 min
Histogram: 1 0 0 0 0 0 0 0 0 1
Neighs:    6791.5 ave 7015 max 6568 min
Histogram: 1 0 0 0 0 0 0 0 0 1

Total # of neighbors = 13583
Ave neighs/atom = 2.7166
Neighbor list builds = 28598
Dangerous builds = 0
unfix 1

write_dump all atom initial.atom

fix   1  all nvt temp $T $T 0.2
fix   1  all nvt temp 0.002 $T 0.2
fix   1  all nvt temp 0.002 0.002 0.2
run   ${relaxstep}
run   5000000
Per MPI rank memory allocation (min/avg/max) = 3.089 | 3.089 | 3.089 Mbytes
Step Temp Press Volume PotEng KinEng Enthalpy Density 
  500000    1.0153037   0.90355961     6385.696   0.12744456    1.0151007    2.2965166        0.783 
  501000 0.0033043631   0.10109454     6385.696  0.061371081 0.0033037023   0.19378658        0.783 
  502000 0.0022535809  0.086822359     6385.696  0.034802668 0.0022531302   0.14794004        0.783 
  503000 0.0020349873  0.075267632     6385.696  0.022151915 0.0020345803   0.12031374        0.783 
  504000 0.0019975323  0.065849953     6385.696  0.014989895 0.0019971328   0.10108658        0.783 
  505000  0.001993486  0.058303489     6385.696  0.010762082 0.0019930873  0.087216841        0.783 
  506000 0.0019993295  0.052356456     6385.696 0.0082649725 0.0019989297  0.077130384        0.783 
  507000  0.001996959  0.047742994     6385.696 0.0067239236 0.0019965596  0.069694933        0.783 
  508000 0.0019948932   0.04443655     6385.696 0.0056934818 0.0019944942  0.064439636        0.783 
  509000  0.001999436  0.042057412     6385.696 0.0050183807 0.0019990361  0.060730586        0.783 
  510000 0.0020031875  0.040285508     6385.696 0.0045722188 0.0020027868  0.058025207        0.783 
  511000 0.0020006975  0.039109336     6385.696 0.0042967141 0.0020002974  0.056245078        0.783 
  512000  0.001995805  0.038547555     6385.696 0.0041409605 0.0019954059   0.05536696        0.783 
  513000 0.0019992089  0.038166424     6385.696 0.0040506274 0.0019988091  0.054793273        0.783 
  514000  0.002003747  0.037587472     6385.696 0.0039703578 0.0020033463  0.053978138        0.783 
  515000 0.0020045451  0.037362649     6385.696 0.0039467778 0.0020041442  0.053668226        0.783 
  516000 0.0019994039  0.036813991     6385.696 0.0038186786  0.001999004  0.052834273        0.783 
  517000 0.0020016836  0.036456463     6385.696 0.0037014087 0.0020012833   0.05226267        0.783 
  518000 0.0019952957    0.0358029     6385.696 0.0035792613 0.0019948966  0.051299445        0.783 
  519000 0.0019935882  0.035694443     6385.696 0.0035124583 0.0019931895   0.05109242        0.783 
  520000 0.0019993376  0.035636709     6385.696 0.0034658485 0.0019989377  0.050977824        0.783 
  521000 0.0020029056  0.035175975     6385.696 0.0034326949  0.002002505  0.050359817        0.783 
  522000 0.0019929768  0.034673947     6385.696 0.0033351318 0.0019925782  0.049611167        0.783 
  523000 0.0019973639  0.034755539     6385.696 0.0033521231 0.0019969644  0.049736749        0.783 
  524000 0.0020075016  0.034807494     6385.696 0.0033942814 0.0020071001  0.049855397        0.783 
  525000 0.0020017928  0.034940024     6385.696 0.0034057258 0.0020013925  0.050030392        0.783 
  526000 0.0019958798  0.035127967     6385.696 0.0034781905 0.0019954806  0.050336975        0.783 
  527000 0.0020104268  0.035313695     6385.696 0.0034801864 0.0020100247  0.050590716        0.783 
  528000 0.0020016011  0.035212708     6385.696 0.0035231979 0.0020012007  0.050495928        0.783 
  529000 0.0019897922  0.035127287     6385.696 0.0035030262 0.0019893943  0.050354856        0.783 
  530000 0.0020039835  0.034911597     6385.696 0.0035210208 0.0020035827  0.050111573        0.783 
  531000 0.0020060028  0.035124824     6385.696 0.0035523943 0.0020056016  0.050417286        0.783 
  532000 0.0019946289  0.035234214     6385.696 0.0035636083 0.0019942299  0.050556834        0.783 
  533000 0.0020085937  0.035270173     6385.696 0.0035690193 0.0020081919  0.050622133        0.783 
  534000 0.0020031341   0.03534032     6385.696  0.003621781 0.0020027335  0.050759022        0.783 
  535000 0.0019859433  0.035239281     6385.696 0.0036066915 0.0019855461  0.050597704        0.783 
  536000 0.0020049567  0.035169063     6385.696 0.0036206845 0.0020045557   0.05054103        0.783 
  537000 0.0020070451  0.035248276     6385.696 0.0036354365 0.0020066437  0.050659035        0.783 
  538000 0.0019910959  0.035245684     6385.696 0.0035959543 0.0019906977  0.050600297        0.783 
  539000 0.0019919864  0.035153965     6385.696 0.0035790795  0.001991588  0.050467175        0.783 
  540000 0.0020079915  0.035392325     6385.696 0.0036529834 0.0020075899  0.050861499        0.783 
  541000 0.0019991125  0.035387909     6385.696 0.0036287004 0.0019987127    0.0508227        0.783 
  542000 0.0019885356  0.035395976     6385.696 0.0035467312 0.0019881379  0.050740458        0.783 
  543000 0.0020039095  0.035136594     6385.696 0.0035763675 0.0020035087  0.050454198        0.783 
  544000 0.0020057705  0.035149763     6385.696 0.0035814822 0.0020053693  0.050477992        0.783 
  545000 0.0019938908  0.035175142     6385.696 0.0035819353  0.001993492   0.05049898        0.783 
  546000 0.0019981914  0.035144862     6385.696 0.0036079582 0.0019977918  0.050490632        0.783 
  547000  0.002012829  0.035113485     6385.696 0.0035613006 0.0020124265  0.050418536        0.783 
  548000 0.0020009768   0.03512694     6385.696 0.0035734462 0.0020005766  0.050436015        0.783 
  549000 0.0019911884  0.035213011     6385.696 0.0035842362 0.0019907901  0.050546943        0.783 
  550000 0.0020164832   0.03533373     6385.696 0.0036076302 0.0020160799  0.050749802        0.783 
  551000 0.0020016254  0.035065704     6385.696 0.0035391379 0.0020012251  0.050324149        0.783 
  552000 0.0019917271  0.035013001     6385.696 0.0035701848 0.0019913288   0.05027799        0.783 
  553000  0.002011106  0.034977303     6385.696 0.0035289632 0.0020107037  0.050210552        0.783 
  554000 0.0020081652  0.034758129     6385.696 0.0034751069 0.0020077635   0.04987384        0.783 
  555000 0.0019878625  0.034818667     6385.696 0.0034821392 0.0019874649  0.049937889        0.783 
  556000 0.0019990667  0.034569944     6385.696 0.0034331712 0.0019986669   0.04958247        0.783 
  557000 0.0020099527  0.034576893     6385.696 0.0033902246 0.0020095507  0.049559281        0.783 
  558000 0.0019929729  0.034302413     6385.696 0.0033453529 0.0019925743  0.049146883        0.783 
  559000 0.0019893708  0.034261407     6385.696 0.0033552398 0.0019889729  0.049100799        0.783 
  560000  0.002007154   0.03408896     6385.696 0.0033095948 0.0020067526  0.048852694        0.783 
  561000 0.0020050022  0.034575867     6385.696 0.0033825231 0.0020046012   0.04954532        0.783 
  562000 0.0019798854  0.034303187     6385.696 0.0033356669 0.0019794894  0.049125101        0.783 
  563000 0.0020115404  0.034442385     6385.696 0.0033965532 0.0020111381  0.049395412        0.783 
  564000 0.0020173364    0.0342814     6385.696 0.0033755222  0.002016933  0.049174575        0.783 
  565000 0.0019868063  0.034762088     6385.696 0.0034365644 0.0019864089  0.049818999        0.783 
  566000 0.0019903105  0.034653372     6385.696 0.0034190471 0.0019899125  0.049666139        0.783 
  567000 0.0020155597  0.034548753     6385.696 0.0034544932 0.0020151566  0.049593217        0.783 
  568000  0.001994131   0.03474886     6385.696 0.0035005863 0.0019937321   0.04987345        0.783 
  569000 0.0019877787   0.03500459     6385.696 0.0035193667 0.0019873811  0.050212482        0.783 
  570000 0.0020102934  0.035267248     6385.696 0.0035786497 0.0020098913  0.050629726        0.783 
  571000 0.0020040018  0.035151469     6385.696 0.0035933947  0.002003601  0.050490315        0.783 
  572000 0.0019848529  0.035139393     6385.696 0.0035955702 0.0019844559  0.050457923        0.783 
  573000 0.0020109834  0.035469294     6385.696 0.0036456614 0.0020105812  0.050955469        0.783 
  574000 0.0020108168  0.035296827     6385.696 0.0036233333 0.0020104147   0.05071271        0.783 
  575000  0.001980015  0.035714808     6385.696 0.0036797023  0.001979619  0.051272103        0.783 
  576000 0.0020069401  0.035757453     6385.696 0.0037424149 0.0020065387  0.051416199        0.783 
  577000 0.0020200343   0.03553496     6385.696 0.0036538591 0.0020196303  0.051056581        0.783 
  578000 0.0019863777  0.035285618     6385.696 0.0036228261 0.0019859804  0.050673453        0.783 
  579000 0.0019975999  0.035253139     6385.696 0.0036216557 0.0019972003  0.050642022        0.783 
  580000 0.0020320666  0.035306086     6385.696 0.0036015706 0.0020316602  0.050724018        0.783 
  581000 0.0019868716  0.034662585     6385.696 0.0034872355 0.0019864742  0.049742656        0.783 
  582000  0.001975067  0.034771028     6385.696 0.0035076483 0.0019746719  0.049889764        0.783 
  583000 0.0020307435  0.034672651     6385.696 0.0034325698 0.0020303373   0.04974471        0.783 
  584000 0.0019988503  0.034644238     6385.696 0.0034349258 0.0019984505  0.049678891        0.783 
  585000 0.0019669759  0.034370983     6385.696 0.0033851185 0.0019665825  0.049248231        0.783 
  586000 0.0020218296  0.034550692     6385.696 0.0033698866 0.0020214252  0.049517355        0.783 
  587000 0.0020129724  0.034207005     6385.696 0.0033303908 0.0020125698  0.049030067        0.783 
  588000 0.0019628244  0.034163081     6385.696 0.0033046263 0.0019624318  0.048898068        0.783 
  589000 0.0020124141  0.034265025     6385.696 0.0033570968 0.0020120116  0.049130315        0.783 
  590000 0.0020299366  0.034245637     6385.696 0.0033028433 0.0020295306   0.04906882        0.783 
  591000 0.0019694164  0.034349398     6385.696 0.0033994679 0.0019690225  0.049237453        0.783 
  592000 0.0019959604  0.034416401     6385.696 0.0033670531 0.0019955612  0.049317149        0.783 
  593000 0.0020362113  0.034468458     6385.696 0.0033767269  0.002035804   0.04943355        0.783 
  594000 0.0019803313  0.034502799     6385.696 0.0034105868 0.0019799353  0.049455399        0.783 
  595000 0.0019825828  0.034525666     6385.696 0.0034194516 0.0019821863   0.04949572        0.783 
  596000 0.0020342431  0.034583566     6385.696  0.003454104 0.0020338362  0.049655968        0.783 
  597000 0.0019954543  0.034669095     6385.696 0.0034688561 0.0019950552  0.049741171        0.783 
  598000 0.0019774533  0.034766578     6385.696 0.0035292964 0.0019770578  0.049908114        0.783 
  599000 0.0020301003  0.034939978     6385.696 0.0035253267 0.0020296943  0.050178236        0.783 
  600000 0.0020033253  0.034646693     6385.696  0.003486728 0.0020029247  0.049738303        0.783 
  601000 0.0019667659   0.03489585     6385.696 0.0035253019 0.0019663726  0.050058532        0.783 
  602000 0.0020245486  0.034883964     6385.696 0.0035588135 0.0020241437  0.050134636        0.783 
  603000 0.0020168503  0.035129358     6385.696  0.003592836 0.0020164469  0.050474363        0.783 
  604000 0.0019628396  0.034888111     6385.696 0.0035520414 0.0019624471  0.050071463        0.783 
  605000 0.0020039761  0.034827043     6385.696 0.0035076856 0.0020035753  0.049990243        0.783 
  606000 0.0020303007  0.034955169     6385.696 0.0035140972 0.0020298947  0.050186609        0.783 
  607000 0.0019714934  0.034789681     6385.696 0.0035224634 0.0019710991  0.049924828        0.783 
  608000 0.0019830874  0.034631583     6385.696 0.0034807488 0.0019826908  0.049692792        0.783 
  609000 0.0020391696  0.034832546     6385.696 0.0035312628 0.0020387618  0.050056034        0.783 
  610000 0.0019967696  0.034612456     6385.696 0.0034857463 0.0019963703  0.049687041        0.783 
  611000 0.0019650347  0.034639762     6385.696 0.0034690461 0.0019646417  0.049673486        0.783 
  612000 0.0020319874  0.034774776     6385.696 0.0034870342  0.002031581  0.049930845        0.783 
  613000  0.002011195  0.034431775     6385.696 0.0034203658 0.0020107927  0.049405329        0.783 
  614000 0.0019626512  0.034693257     6385.696 0.0034529695 0.0019622586  0.049723346        0.783 
  615000 0.0020142008  0.034671317     6385.696 0.0034472825  0.002013798  0.049741179        0.783 
  616000 0.0020173116  0.034366211     6385.696 0.0033580781 0.0020169082  0.049265422        0.783 
  617000 0.0019617358  0.034281217     6385.696 0.0033787402 0.0019613434   0.04912197        0.783 
  618000 0.0019976933  0.034596034     6385.696 0.0034620221 0.0019972938  0.049643268        0.783 
  619000 0.0020388423  0.034520482     6385.696 0.0034181229 0.0020384345  0.049544018        0.783 
  620000 0.0019811291  0.034471822     6385.696 0.0033822927 0.0019807329  0.049388341        0.783 
  621000 0.0019766651  0.034290153     6385.696 0.0033841886 0.0019762698  0.049153758        0.783 
  622000 0.0020370928  0.034513056     6385.696 0.0033862055 0.0020366854  0.049500868        0.783 
  623000 0.0020008359  0.034320015     6385.696 0.0034049031 0.0020004357  0.049236775        0.783 
  624000 0.0019544803   0.03426368     6385.696 0.0033721143 0.0019540894  0.049085693        0.783 
  625000 0.0020245006  0.034293436     6385.696   0.00337793 0.0020240957  0.049199517        0.783 
  626000 0.0020190539  0.034349498     6385.696 0.0033731584 0.0020186501  0.049260899        0.783 
  627000  0.001956451  0.034724044     6385.696 0.0034392128 0.0019560597   0.04974271        0.783 
  628000 0.0020032899  0.034545183     6385.696 0.0034246843 0.0020028893  0.049546582        0.783 
  629000 0.0020325124  0.034442726     6385.696  0.003401938 0.0020321059    0.0494222        0.783 
  630000 0.0019712543  0.034568143     6385.696 0.0034072879 0.0019708601  0.049526479        0.783 
  631000 0.0019771241  0.034504202     6385.696 0.0034548641 0.0019767286  0.049498262        0.783 
  632000 0.0020382803  0.034784541     6385.696  0.003459451 0.0020378726  0.049922025        0.783 
  633000 0.0019943266    0.0345996     6385.696 0.0034596126 0.0019939277  0.049642046        0.783 
  634000 0.0019699185  0.034407517     6385.696 0.0034128097 0.0019695245  0.049325523        0.783 
  635000 0.0020265591  0.034555256     6385.696 0.0034431185 0.0020261538  0.049601145        0.783 
  636000  0.002007468  0.034430627     6385.696 0.0034319821 0.0020070665  0.049411752        0.783 
  637000 0.0019793355  0.034799804     6385.696 0.0035226005 0.0019789397  0.049945734        0.783 
  638000 0.0020103594   0.03476571     6385.696 0.0034858913 0.0020099573  0.049896499        0.783 
  639000 0.0020166011  0.035022965     6385.696 0.0035270586 0.0020161978  0.050272459        0.783 
  640000 0.0019826206  0.034995318     6385.696 0.0035375361 0.0019822241  0.050213653        0.783 
  641000  0.001998911  0.034807054     6385.696 0.0035330496 0.0019985112  0.049985014        0.783 
  642000 0.0020224614   0.03496772     6385.696 0.0035316034 0.0020220569  0.050212307        0.783 
  643000 0.0019963683  0.034953892     6385.696 0.0035158245 0.0019959691   0.05015278        0.783 
  644000 0.0019849483  0.034721092     6385.696  0.003490938 0.0019845513  0.049819158        0.783 
  645000 0.0020158929  0.034776329     6385.696 0.0035007501 0.0020154897  0.049930453        0.783 
  646000 0.0020101981  0.034783873     6385.696 0.0034783291 0.0020097961  0.049911974        0.783 
  647000 0.0019780996  0.034769353     6385.696 0.0034840533  0.001977704  0.049867061        0.783 
  648000 0.0020024425   0.03508479     6385.696 0.0035135912  0.002002042  0.050323794        0.783 
  649000 0.0020242323  0.034717496     6385.696 0.0034617339 0.0020238274  0.049824636        0.783 
  650000 0.0019844316  0.034477524     6385.696 0.0034351477 0.0019840347   0.04945178        0.783 
  651000 0.0019880114  0.034638177     6385.696 0.0034496526 0.0019876138  0.049675041        0.783 
  652000 0.0020260628  0.034793318     6385.696 0.0034668574 0.0020256576  0.049928426        0.783 
  653000 0.0019879503  0.034430137     6385.696 0.0033950758 0.0019875527  0.049354707        0.783 
  654000 0.0019819252  0.034383106     6385.696 0.0034266434 0.0019815288  0.049320185        0.783 
  655000   0.00202563    0.0342949     6385.696 0.0034213084 0.0020252249  0.049245894        0.783 
  656000 0.0019977017  0.034352445     6385.696 0.0033509808 0.0019973022  0.049221137        0.783 
  657000 0.0019754593  0.034494125     6385.696 0.0034233389 0.0019750642  0.049452203        0.783 
  658000 0.0020174269   0.03478119     6385.696 0.0034399899 0.0020170234  0.049877435        0.783 
  659000 0.0020134242  0.034497077     6385.696  0.003390478 0.0020130216  0.049461069        0.783 
  660000 0.0019766384  0.034355205     6385.696  0.003430294 0.0019762431  0.049282917        0.783 
  661000 0.0020036952  0.034448869     6385.696 0.0034209018 0.0020032945  0.049420197        0.783 
  662000 0.0020197077  0.034394971     6385.696 0.0034216144 0.0020193038  0.049368084        0.783 
  663000 0.0019803861   0.03453724     6385.696 0.0034601411   0.00197999  0.049548994        0.783 
  664000  0.001994821  0.034798011     6385.696 0.0034902111 0.0019944221  0.049926538        0.783 
  665000 0.0020268804  0.034587831     6385.696  0.003465875  0.002026475  0.049665826        0.783 
  666000 0.0019888146   0.03459184     6385.696  0.003467097 0.0019884168  0.049634109        0.783 
  667000 0.0019766639  0.034524814     6385.696 0.0034446451 0.0019762686  0.049513907        0.783 
  668000 0.0020220735  0.034602722     6385.696 0.0034249639 0.0020216691  0.049639126        0.783 
  669000 0.0020051985  0.034541967     6385.696 0.0034601194 0.0020047975  0.049579817        0.783 
  670000 0.0019706183   0.03465019     6385.696 0.0035110799 0.0019702241  0.049734421        0.783 
  671000 0.0020136078  0.034514716     6385.696 0.0034676585 0.0020132051   0.04956096        0.783 
  672000 0.0020131786  0.034727884     6385.696 0.0034871759 0.0020127759  0.049852294        0.783 
  673000 0.0019718224  0.034585351     6385.696 0.0034757756  0.001971428  0.049617511        0.783 
  674000  0.002010948  0.034663513     6385.696 0.0034629157 0.0020105458  0.049743592        0.783 
  675000 0.0020203124  0.034560166     6385.696 0.0034168156 0.0020199084  0.049574867        0.783 
  676000 0.0019814303  0.034619385     6385.696 0.0034558867  0.001981034  0.049650694        0.783 
  677000 0.0019950259  0.034645302     6385.696  0.003483757 0.0019946269  0.049725258        0.783 
  678000 0.0020182582  0.034468073     6385.696 0.0034267974 0.0020178546   0.04946518        0.783 
  679000 0.0019882974  0.034459285     6385.696 0.0034116732 0.0019878997  0.049408877        0.783 
  680000  0.001984723   0.03466402     6385.696 0.0034060021 0.0019843261  0.049661107        0.783 
  681000  0.002009961  0.034697635     6385.696 0.0034120699  0.002009559  0.049735339        0.783 
  682000 0.0019967513  0.034762084     6385.696 0.0034733037  0.001996352  0.049865677        0.783 
  683000 0.0019829666  0.034467835     6385.696 0.0034290876   0.00198257  0.049431881        0.783 
  684000 0.0020159326    0.0344905     6385.696 0.0034061061 0.0020155294  0.049470805        0.783 
  685000 0.0020097221  0.034393546     6385.696 0.0034251786 0.0020093201  0.049359845        0.783 
  686000 0.0019802732  0.034380902     6385.696  0.003404918 0.0019798771  0.049293993        0.783 
  687000 0.0020140855  0.034594383     6385.696 0.0034261806 0.0020136827  0.049621707        0.783 
  688000 0.0020171816   0.03458852     6385.696 0.0034152427 0.0020167782  0.049606376        0.783 
  689000 0.0019781249  0.034609063     6385.696 0.0034666922 0.0019777293  0.049645013        0.783 
  690000 0.0020493577  0.034592672     6385.696 0.0034319282 0.0020489478  0.049660534        0.783 
  691000 0.0020030267   0.03440241     6385.696 0.0034093331 0.0020026261  0.049348626        0.783 
  692000 0.0019946708  0.034434141     6385.696 0.0034410796 0.0019942719  0.049412544        0.783 
  693000 0.0019988335  0.034658333     6385.696 0.0034202494 0.0019984337  0.049682199        0.783 
  694000 0.0019882736  0.034822469     6385.696 0.0034886316  0.001987876  0.049949648        0.783 
  695000 0.0020018405  0.034593864     6385.696  0.003430047 0.0020014401  0.049612667        0.783 
  696000 0.0020329888  0.034879014     6385.696 0.0035005924 0.0020325822  0.050078531        0.783 
  697000 0.0019787218  0.034492612     6385.696 0.0034073795  0.001978326  0.049437572        0.783 
  698000 0.0020227068  0.034822225     6385.696 0.0034898994 0.0020223023  0.049985031        0.783 
  699000 0.0020168415  0.034605542     6385.696 0.0034564221 0.0020164381  0.049668955        0.783 
  700000 0.0019683189  0.034538934     6385.696 0.0034711212 0.0019679252  0.049550073        0.783 
  701000  0.001983455  0.034753197     6385.696  0.003478841 0.0019830583   0.04984657        0.783 
  702000 0.0020118213  0.034391312     6385.696 0.0034158037 0.0020114189  0.049349715        0.783 
  703000 0.0019521773  0.034434415     6385.696 0.0034640854 0.0019517868  0.049393414        0.783 
  704000 0.0020173368  0.034555289     6385.696  0.003461642 0.0020169333   0.04961049        0.783 
  705000 0.0020497299   0.03443669     6385.696 0.0034190314   0.00204932  0.049448799        0.783 
  706000 0.0019700975  0.034472959     6385.696 0.0034379671 0.0019697035  0.049434438        0.783 
  707000 0.0019663345  0.034491651     6385.696 0.0034641136 0.0019659413  0.049480694        0.783 
  708000  0.002025468  0.034553704     6385.696 0.0034624468 0.0020250629    0.0496174        0.783 
  709000  0.002004614  0.034405472     6385.696   0.00342421  0.002004213  0.049369001        0.783 
  710000  0.002006084  0.034492937     6385.696 0.0034299412 0.0020056828  0.049487906        0.783 
  711000 0.0019849384  0.034212782     6385.696 0.0033951767 0.0019845414  0.049074204        0.783 
  712000 0.0020309468  0.034457322     6385.696 0.0034056849 0.0020305406  0.049443023        0.783 
  713000 0.0020028294  0.034548894     6385.696 0.0034648633 0.0020024288  0.049591039        0.783 
  714000 0.0019494188   0.03432462     6385.696 0.0033927893 0.0019490289  0.049179136        0.783 
  715000 0.0019814404  0.034237329     6385.696 0.0033724868 0.0019810442  0.049079366        0.783 
  716000 0.0020391815  0.034251565     6385.696 0.0034027055 0.0020387737  0.049185496        0.783 
  717000 0.0020463748  0.034343273     6385.696 0.0034079706 0.0020459655  0.049315077        0.783 
  718000 0.0019858174  0.034146525     6385.696 0.0033844818 0.0019854202  0.048979768        0.783 
  719000 0.0020278291  0.034220427     6385.696 0.0033728075 0.0020274235   0.04910448        0.783 
  720000 0.0019904704  0.034305584     6385.696 0.0034025647 0.0019900724  0.049205644        0.783 
  721000 0.0020052879  0.034216139     6385.696 0.0033886983 0.0020048869  0.049092358        0.783 
  722000 0.0019745212  0.034263972     6385.696 0.0033737845 0.0019741263  0.049107773        0.783 
  723000 0.0020199456  0.034333156     6385.696 0.0034160725 0.0020195416  0.049283834        0.783 
  724000 0.0019518535  0.034497695     6385.696 0.0034461842 0.0019514631  0.049456006        0.783 
  725000 0.0020343649  0.034267263     6385.696 0.0033458747  0.002033958  0.049143897        0.783 
  726000 0.0019834001  0.034540809     6385.696  0.003459749 0.0019830034  0.049556174        0.783 
  727000 0.0019728053  0.034660796     6385.696 0.0034614265 0.0019724108  0.049700499        0.783 
  728000 0.0020114345  0.034454806     6385.696 0.0034281738 0.0020110322  0.049442789        0.783 
  729000 0.0019924555  0.034547758     6385.696 0.0034506058  0.001992057  0.049564959        0.783 
  730000 0.0020378541  0.034630951     6385.696 0.0034364012 0.0020374465  0.049702393        0.783 
  731000 0.0019840639  0.034543846     6385.696 0.0034009714 0.0019836671  0.049501939        0.783 
  732000 0.0019930456  0.034590203     6385.696  0.003456261  0.001992647  0.049625412        0.783 
  733000 0.0020427006  0.034610965     6385.696 0.0034430223 0.0020422921  0.049688335        0.783 
  734000 0.0019829795  0.034460824     6385.696 0.0034318404 0.0019825829  0.049425693        0.783 
  735000 0.0019568983  0.034564554     6385.696 0.0034558229 0.0019565069  0.049556077        0.783 
  736000 0.0020026864  0.034749026     6385.696 0.0034940225 0.0020022858  0.049875652        0.783 
  737000 0.0020119064  0.034542718     6385.696 0.0034179253  0.002011504  0.049545289        0.783 
  738000 0.0019937251  0.034657738     6385.696 0.0034925493 0.0019933263  0.049748632        0.783 
  739000 0.0020040574   0.03446826     6385.696 0.0034235427 0.0020036566  0.049447966        0.783 
  740000 0.0020098705  0.034451099     6385.696 0.0034521922 0.0020094686   0.04946051        0.783 
  741000 0.0020216818  0.034775552     6385.696 0.0034731787 0.0020212775  0.049907677        0.783 
  742000  0.001983419  0.034552746     6385.696 0.0034764804 0.0019830223  0.049588169        0.783 
  743000 0.0019549815   0.03441423     6385.696 0.0034166848 0.0019545905  0.049323037        0.783 
  744000 0.0020379512  0.034610553     6385.696 0.0034382462 0.0020375436  0.049678284        0.783 
  745000 0.0019478888  0.034260964     6385.696 0.0033869838 0.0019474992  0.049090503        0.783 
  746000 0.0020066541  0.034503039     6385.696 0.0034245639 0.0020062527  0.049496001        0.783 
  747000 0.0020047445  0.034552544     6385.696 0.0034522488 0.0020043435  0.049585001        0.783 
  748000 0.0020109462  0.034311948     6385.696 0.0033774999  0.002010544  0.049209179        0.783 
  749000 0.0019566631  0.034292251     6385.696 0.0034153741 0.0019562718  0.049167624        0.783 
  750000 0.0020240099  0.034392301     6385.696  0.003362914 0.0020236051  0.049310275        0.783 
  751000 0.0019958122  0.034480519     6385.696 0.0034005082  0.001995413  0.049432344        0.783 
  752000 0.0019573191  0.034526299     6385.696 0.0034294299 0.0019569276  0.049481248        0.783 
  753000 0.0020313997  0.034638441     6385.696 0.0034119657 0.0020309935   0.04968107        0.783 
  754000 0.0020013372  0.034608471     6385.696 0.0034358054 0.0020009369  0.049636577        0.783 
  755000 0.0020115915  0.034832211     6385.696 0.0034406141 0.0020111892  0.049937386        0.783 
  756000 0.0019877005  0.034599759     6385.696 0.0034487726 0.0019873029  0.049624784        0.783 
[...]
 4815000 0.0020218005  0.034195553     6385.696 0.0033688973 0.0020213961  0.049062775        0.783 
 4816000 0.0020039751  0.034169734     6385.696 0.0033899071 0.0020035743  0.049032989        0.783 
 4817000 0.0019933111  0.034188077     6385.696 0.0033479701 0.0019929125  0.049003816        0.783 
 4818000 0.0019352089  0.034175687     6385.696 0.0034041426 0.0019348218  0.048986074        0.783 
 4819000 0.0019889891  0.034079176     6385.696 0.0033341876 0.0019885913  0.048846631        0.783 
 4820000 0.0020462202  0.034513774     6385.696 0.0033863825  0.002045811  0.049511087        0.783 
 4821000 0.0019687718   0.03449721     6385.696 0.0034128273 0.0019683781  0.049438945        0.783 
 4822000 0.0019632522  0.034531646     6385.696 0.0034346753 0.0019628596  0.049499254        0.783 
 4823000 0.0019843789  0.034411668     6385.696 0.0034141799  0.001983982  0.049346652        0.783 
 4824000   0.00203026  0.034350313     6385.696 0.0034112694  0.002029854  0.049311255        0.783 
 4825000 0.0020161523    0.0343444     6385.696 0.0033673785 0.0020157491  0.049245708        0.783 
 4826000 0.0019907641  0.034465885     6385.696  0.003441779  0.001990366  0.049449878        0.783 
 4827000 0.0020183639  0.034264303     6385.696 0.0033802289 0.0020179602  0.049158474        0.783 
 4828000 0.0020130851  0.034236431     6385.696 0.0033427225 0.0020126825  0.049080093        0.783 
 4829000 0.0020198787  0.034397634     6385.696 0.0034047494 0.0020194748  0.049354791        0.783 
 4830000 0.0019744159  0.034510121     6385.696 0.0034049447  0.001974021  0.049453194        0.783 
 4831000 0.0020224441  0.034242609     6385.696 0.0033946881 0.0020220396  0.049149306        0.783 
 4832000 0.0020171143  0.034213493     6385.696 0.0033585273 0.0020167108  0.049070631        0.783 
 4833000 0.0019902515  0.034217526     6385.696 0.0033821149 0.0019898534  0.049072513        0.783 
 4834000 0.0019934842  0.034264572     6385.696 0.0033789235 0.0019930855  0.049132638        0.783 
 4835000 0.0020187625  0.034485969     6385.696 0.0034295121 0.0020183588  0.049491255        0.783 
 4836000 0.0020016873  0.034401356     6385.696 0.0034339224 0.0020012869  0.049370529        0.783 
 4837000 0.0020084074  0.034144311     6385.696 0.0033952507 0.0020080058  0.049010295        0.783 
 4838000 0.0020471646  0.034384999     6385.696 0.0034260194 0.0020467552  0.049387205        0.783 
 4839000 0.0019636768   0.03435884     6385.696 0.0033580904 0.0019632841  0.049202396        0.783 
 4840000 0.0019954591  0.034365663     6385.696 0.0034554547   0.00199506   0.04934025        0.783 
 4841000 0.0019842581  0.034273116     6385.696 0.0033956273 0.0019838612  0.049151029        0.783 
 4842000 0.0019448725  0.034506125     6385.696 0.0034358787 0.0019444836  0.049449488        0.783 
 4843000  0.002010154  0.034330403     6385.696 0.0034122887 0.0020097519  0.049266745        0.783 
 4844000 0.0020043496  0.034328079     6385.696 0.0033978725 0.0020039487  0.049243557        0.783 
 4845000 0.0020421509  0.034451763     6385.696 0.0033901193 0.0020417425  0.049431559        0.783 
 4846000 0.0019783202  0.034291269     6385.696 0.0034062763 0.0019779245  0.049178924        0.783 
 4847000 0.0019668718  0.034234436     6385.696 0.0033803197 0.0019664785  0.049068938        0.783 
 4848000 0.0020044987  0.034362109     6385.696 0.0034069323 0.0020040978  0.049296227        0.783 
 4849000 0.0019886266  0.034543701     6385.696 0.0034390552 0.0019882289  0.049544399        0.783 
 4850000 0.0019767233  0.034380994     6385.696 0.0034043949 0.0019763279  0.049290039        0.783 
 4851000 0.0020421625  0.034333228     6385.696 0.0033730413 0.0020417541  0.049263107        0.783 
 4852000 0.0020321741   0.03452829     6385.696 0.0034138873 0.0020317677  0.049543088        0.783 
 4853000 0.0020451689   0.03414344     6385.696 0.0033854219 0.0020447598  0.049036108        0.783 
 4854000 0.0020050026  0.034032876     6385.696 0.0033479486 0.0020046016  0.048817271        0.783 
 4855000 0.0019854541  0.034081939     6385.696 0.0033661773  0.001985057  0.048878614        0.783 
 4856000 0.0020228794   0.03428263     6385.696 0.0034209623 0.0020224748  0.049227128        0.783 
 4857000 0.0019764233  0.034504104     6385.696 0.0033959903  0.001976028  0.049438562        0.783 
 4858000 0.0020428988  0.034108124     6385.696 0.0033846259 0.0020424902  0.048987939        0.783 
 4859000 0.0020150676  0.034531156     6385.696 0.0034287584 0.0020146646  0.049544516        0.783 
 4860000 0.0019860065  0.034278526     6385.696 0.0033810753 0.0019856093  0.049145134        0.783 
 4861000 0.0020346504  0.034472088     6385.696 0.0034214974 0.0020342434  0.049481396        0.783 
 4862000  0.001969127  0.034247571     6385.696 0.0034020839 0.0019687332  0.049109732        0.783 
 4863000  0.001987252  0.034350748     6385.696  0.003386568 0.0019868545   0.04924411        0.783 
 4864000 0.0020072084  0.034327211     6385.696 0.0033959087 0.0020068069  0.049243343        0.783 
 4865000  0.002009178  0.034491027     6385.696 0.0034746915 0.0020087762   0.04953331        0.783 
 4866000 0.0020196465  0.034618922     6385.696 0.0034434436 0.0020192425  0.049675869        0.783 
 4867000 0.0020399429  0.034197955     6385.696 0.0033582711 0.0020395349  0.049073355        0.783 
 4868000   0.00197386  0.034370707     6385.696 0.0033698282 0.0019734653  0.049239471        0.783 
 4869000 0.0020088506  0.034151124     6385.696 0.0033547663 0.0020084489  0.048978954        0.783 
 4870000 0.0020254806  0.034473065     6385.696 0.0033841965 0.0020250755  0.049436175        0.783 
 4871000 0.0019902449  0.034516165     6385.696 0.0034565767 0.0019898468  0.049528371        0.783 
 4872000  0.001965833  0.034398085     6385.696 0.0034207246 0.0019654398  0.049317308        0.783 
 4873000 0.0020285267  0.034551595     6385.696 0.0034397357  0.002028121  0.049595053        0.783 
 4874000 0.0019914944  0.034331883     6385.696 0.0033818411 0.0019910961  0.049219531        0.783 
 4875000 0.0019988601  0.034375072     6385.696 0.0033917667 0.0019984603  0.049291979        0.783 
 4876000 0.0020308424  0.034459406     6385.696 0.0034005118 0.0020304362  0.049440407        0.783 
 4877000 0.0019666442  0.034130618     6385.696 0.0033813073 0.0019662508  0.048937109        0.783 
 4878000 0.0020084561  0.034390792     6385.696 0.0034377974 0.0020080544   0.04936768        0.783 
 4879000  0.002032735  0.034469298     6385.696 0.0034097971 0.0020323284  0.049464217        0.783 
 4880000 0.0019651855   0.03442736     6385.696  0.003418601 0.0019647925  0.049351925        0.783 
 4881000 0.0020171047  0.034604085     6385.696 0.0034438672 0.0020167013  0.049654803        0.783 
 4882000 0.0020284197  0.034497544     6385.696 0.0034120301  0.002028014   0.04949821        0.783 
 4883000 0.0019939452  0.034343271     6385.696 0.0033693222 0.0019935464  0.049224007        0.783 
 4884000 0.0019514503  0.034289664     6385.696  0.003397663   0.00195106  0.049141397        0.783 
 4885000 0.0020218707  0.034565388     6385.696 0.0034209248 0.0020214663  0.049587203        0.783 
 4886000 0.0019931374  0.034432552     6385.696 0.0033875752 0.0019927387  0.049355476        0.783 
 4887000 0.0019986411  0.034263066     6385.696 0.0033673418 0.0019982414  0.049124289        0.783 
 4888000 0.0020179394  0.034201465     6385.696  0.003357431 0.0020175359  0.049054998        0.783 
 4889000 0.0019928173  0.034372404     6385.696 0.0034180201 0.0019924188  0.049308784        0.783 
 4890000 0.0019899557  0.034298224     6385.696 0.0033766759 0.0019895577   0.04916984        0.783 
 4891000 0.0019754678  0.034444612     6385.696 0.0033888146 0.0019750727  0.049354452        0.783 
 4892000 0.0020092489  0.034565192     6385.696 0.0034361187 0.0020088471  0.049589527        0.783 
 4893000 0.0019553762   0.03424894     6385.696 0.0033556585 0.0019549851  0.049051308        0.783 
 4894000 0.0020129381  0.034096072     6385.696 0.0033456313 0.0020125356  0.048903597        0.783 
 4895000  0.002017854    0.0345489     6385.696 0.0034305464 0.0020174504  0.049571752        0.783 
 4896000 0.0020192777  0.034217702     6385.696 0.0033853706 0.0020188738  0.049105013        0.783 
 4897000 0.0020302483  0.034259736     6385.696 0.0033503282 0.0020298423  0.049134623        0.783 
 4898000 0.0020057246      0.03408     6385.696 0.0033451822 0.0020053234   0.04887541        0.783 
 4899000 0.0019717229  0.034046695     6385.696 0.0033863359 0.0019713285  0.048840033        0.783 
 4900000 0.0020481937  0.034579507     6385.696 0.0034226724 0.0020477841  0.049633301        0.783 
 4901000 0.0019785706  0.034329494     6385.696 0.0033759437 0.0019781749  0.049197661        0.783 
 4902000 0.0019592667   0.03451053     6385.696 0.0034183266 0.0019588748  0.049451952        0.783 
 4903000 0.0020082973  0.034358361     6385.696 0.0033840269 0.0020078956  0.049272333        0.783 
 4904000 0.0019924729  0.034422575     6385.696 0.0033997667 0.0019920744  0.049354261        0.783 
 4905000 0.0020307289  0.034431038     6385.696  0.003377262 0.0020303228  0.049380813        0.783 
 4906000 0.0020180004  0.034165372     6385.696 0.0033810904 0.0020175968  0.049032623        0.783 
 4907000 0.0020005039  0.034447758     6385.696 0.0034047153 0.0020001038  0.049399402        0.783 
 4908000  0.002015382  0.034170697     6385.696 0.0033536304  0.002014979  0.049009347        0.783 
 4909000 0.0019874471  0.034492313     6385.696 0.0034182132 0.0019870496  0.049456748        0.783 
 4910000  0.002018998  0.034481191     6385.696 0.0034237119 0.0020185942  0.049479587        0.783 
 4911000 0.0020003438  0.034415397     6385.696 0.0034031665 0.0019999438  0.049356363        0.783 
 4912000 0.0019852705  0.034281169     6385.696 0.0033676822 0.0019848735  0.049134381        0.783 
 4913000 0.0019748028  0.034333625     6385.696 0.0033931628 0.0019744079  0.049216389        0.783 
 4914000 0.0020379031  0.034561939     6385.696 0.0034216813 0.0020374955  0.049599584        0.783 
 4915000 0.0020092084  0.034444639     6385.696 0.0034222248 0.0020088066  0.049421631        0.783 
 4916000 0.0019721831   0.03425662     6385.696 0.0033862175 0.0019717886  0.049108479        0.783 
 4917000 0.0020314858  0.034201943     6385.696 0.0033649088 0.0020310795  0.049076631        0.783 
 4918000 0.0019655215  0.034061711     6385.696 0.0033758685 0.0019651284  0.048842544        0.783 
 4919000 0.0019802107  0.034315656     6385.696 0.0033812787 0.0019798147  0.049186963        0.783 
 4920000 0.0020470911  0.034370059     6385.696 0.0033562018 0.0020466817  0.049298233        0.783 
 4921000 0.0019902726  0.034210237     6385.696 0.0033406847 0.0019898746  0.049021794        0.783 
 4922000 0.0019620373  0.034064754     6385.696 0.0033685973 0.0019616449  0.048835675        0.783 
 4923000 0.0020257374  0.034720774     6385.696 0.0034744838 0.0020253322  0.049843078        0.783 
 4924000 0.0020268088  0.034448278     6385.696  0.003449186 0.0020264035  0.049470835        0.783 
 4925000 0.0019707842  0.034482637     6385.696 0.0034023706 0.0019703901  0.049411889        0.783 
 4926000 0.0020506308  0.034194587     6385.696 0.0033529596 0.0020502206  0.049074428        0.783 
 4927000 0.0020073415  0.034171777     6385.696 0.0033182628   0.00200694  0.048967319        0.783 
 4928000 0.0019992251  0.034521822     6385.696 0.0034090606 0.0019988253  0.049497058        0.783 
 4929000  0.002004033  0.034187999     6385.696 0.0033833188 0.0020036322  0.049049785        0.783 
 4930000 0.0019659082  0.034076725     6385.696 0.0033663897  0.001965515  0.048852626        0.783 
 4931000 0.0020078496  0.034176213     6385.696 0.0033973112  0.002007448   0.04905254        0.783 
 4932000 0.0020243404  0.034383922     6385.696 0.0033970408 0.0020239355  0.049334032        0.783 
 4933000 0.0020042629  0.034278221     6385.696 0.0033833948  0.002003862  0.049165316        0.783 
 4934000  0.001990737  0.034602746     6385.696 0.0034333553 0.0019903389  0.049616218        0.783 
 4935000   0.00197724  0.034275255     6385.696  0.003339146 0.0019768445  0.049090263        0.783 
 4936000 0.0020492346  0.034111847     6385.696 0.0033905055 0.0020488248  0.049004908        0.783 
 4937000 0.0019626894  0.034580255     6385.696  0.003433714 0.0019622969   0.04955981        0.783 
 4938000  0.002028048  0.034366872     6385.696 0.0034053832 0.0020276424  0.049324305        0.783 
 4939000 0.0020080928  0.034419742     6385.696 0.0033709022 0.0020076912  0.049337395        0.783 
 4940000 0.0019836781  0.034288473     6385.696  0.003351411 0.0019832814  0.049125846        0.783 
 4941000 0.0020419488  0.034313205     6385.696 0.0033834538 0.0020415404  0.049247734        0.783 
 4942000 0.0019676978  0.034468279     6385.696 0.0034257773 0.0019673043  0.049413872        0.783 
 4943000 0.0019676095  0.034435231     6385.696 0.0033893823  0.001967216  0.049335182        0.783 
 4944000 0.0020082748  0.034339034     6385.696 0.0033609736 0.0020078732  0.049224573        0.783 
 4945000 0.0019440209  0.034145226     6385.696 0.0033350654 0.0019436321  0.048886904        0.783 
 4946000 0.0020125026  0.034353822     6385.696 0.0034120595 0.0020121001  0.049298773        0.783 
 4947000  0.001984578  0.034504724     6385.696 0.0033913061 0.0019841811  0.049442823        0.783 
 4948000 0.0019857382  0.034379638     6385.696 0.0034361612 0.0019853411  0.049329085        0.783 
 4949000 0.0020217322  0.034504546     6385.696 0.0034014381 0.0020213278  0.049489874        0.783 
 4950000 0.0020120009  0.034391734     6385.696 0.0033955291 0.0020115985  0.049330159        0.783 
 4951000  0.002006622  0.034490271     6385.696 0.0034316341 0.0020062207  0.049486732        0.783 
 4952000 0.0019736949  0.034114586     6385.696 0.0033698228 0.0019733002  0.048912198        0.783 
 4953000 0.0019657813  0.034393928     6385.696 0.0034129657 0.0019653881  0.049304187        0.783 
 4954000 0.0020305824  0.034328054     6385.696 0.0034094305 0.0020301763  0.049281311        0.783 
 4955000 0.0019685369  0.034187843     6385.696 0.0033652417 0.0019681432  0.048996019        0.783 
 4956000 0.0019763758  0.034043836     6385.696 0.0033676485 0.0019759805  0.048822347        0.783 
 4957000 0.0020070853  0.034177556     6385.696 0.0033402484 0.0020066839  0.048996429        0.783 
 4958000 0.0019465347  0.033946804     6385.696 0.0033335374 0.0019461454  0.048634477        0.783 
 4959000 0.0019800998  0.034161973     6385.696 0.0033704031 0.0019797037  0.048979701        0.783 
 4960000 0.0020454211   0.03436139     6385.696 0.0034115449  0.002045012  0.049340836        0.783 
 4961000 0.0019956974   0.03415905     6385.696 0.0033816681 0.0019952983  0.049002828        0.783 
 4962000 0.0019513231  0.034358869     6385.696 0.0034050178 0.0019509329  0.049237009        0.783 
 4963000 0.0019827998  0.034185204     6385.696 0.0034050615 0.0019824032  0.049046729        0.783 
 4964000 0.0019913509  0.034253523     6385.696 0.0033726372 0.0019909526  0.049110107        0.783 
 4965000 0.0019857255  0.034369239     6385.696 0.0033951569 0.0019853283  0.049274788        0.783 
 4966000 0.0020433602  0.034356054     6385.696 0.0034114155 0.0020429515  0.049331831        0.783 
 4967000 0.0020216286  0.034365568     6385.696 0.0033933023 0.0020212242  0.049304141        0.783 
 4968000 0.0019744904  0.034001085     6385.696  0.003331085 0.0019740955  0.048729299        0.783 
 4969000 0.0019331592   0.03429885     6385.696 0.0033813436 0.0019327726  0.049118522        0.783 
 4970000 0.0019954789  0.034261698     6385.696  0.003361589 0.0019950798  0.049113627        0.783 
 4971000 0.0020123366  0.034558404     6385.696 0.0034459341 0.0020119341  0.049593761        0.783 
 4972000 0.0019958684  0.034364193     6385.696 0.0033809903 0.0019954692  0.049264318        0.783 
 4973000 0.0019975501  0.034469821     6385.696 0.0034067491 0.0019971506   0.04942666        0.783 
 4974000 0.0020199347  0.034455412     6385.696 0.0034380389 0.0020195307  0.049461927        0.783 
 4975000 0.0019779048  0.034247634     6385.696 0.0033891251 0.0019775092  0.049105631        0.783 
 4976000 0.0020694816  0.034641413     6385.696 0.0034295197 0.0020690677  0.049740494        0.783 
 4977000 0.0020016659  0.034185349     6385.696 0.0034142554 0.0020012656   0.04907497        0.783 
 4978000 0.0019405401  0.034451436     6385.696 0.0033956878  0.001940152  0.049335119        0.783 
 4979000 0.0020103157  0.034390001     6385.696 0.0034144774 0.0020099137   0.04934521        0.783 
 4980000 0.0020303282  0.034221587     6385.696 0.0033776115 0.0020299222  0.049113264        0.783 
 4981000 0.0020024501  0.034302003     6385.696  0.003423062 0.0020020496  0.049233544        0.783 
 4982000 0.0019994693  0.034374573     6385.696 0.0033960695 0.0019990694  0.049296254        0.783 
 4983000 0.0019807621  0.034270475     6385.696 0.0034030113 0.0019803659  0.049151544        0.783 
 4984000 0.0020049807   0.03432321     6385.696 0.0033758908 0.0020045797  0.049215987        0.783 
 4985000 0.0019897674  0.034572862     6385.696 0.0034446179 0.0019893695  0.049588345        0.783 
 4986000 0.0020418326  0.034447063     6385.696 0.0034096117 0.0020414242  0.049444731        0.783 
 4987000  0.002011703  0.034689805     6385.696 0.0034953429 0.0020113007  0.049810354        0.783 
 4988000 0.0020335032  0.034654937     6385.696 0.0034438824 0.0020330965  0.049736158        0.783 
 4989000 0.0019699886  0.034416937     6385.696 0.0034046785 0.0019695946  0.049329493        0.783 
 4990000 0.0020205765  0.034210735     6385.696 0.0033733434 0.0020201724  0.049085387        0.783 
 4991000 0.0019935323  0.034459737     6385.696 0.0034524514 0.0019931336  0.049455467        0.783 
 4992000 0.0019942666  0.034151687     6385.696  0.003349601 0.0019938678  0.048959927        0.783 
 4993000 0.0019813478  0.034273211     6385.696 0.0033718994 0.0019809515  0.049124513        0.783 
 4994000 0.0020042641  0.034336879     6385.696 0.0033838478 0.0020038632  0.049240685        0.783 
 4995000 0.0020038441  0.034150754     6385.696 0.0033749635 0.0020034433  0.048993673        0.783 
 4996000 0.0019632013  0.034344242     6385.696 0.0034107856 0.0019628087  0.049235972        0.783 
 4997000 0.0020079547  0.034119162     6385.696 0.0033783674 0.0020075531   0.04896084        0.783 
 4998000 0.0020587323  0.034418766     6385.696 0.0034096151 0.0020583205  0.049425491        0.783 
 4999000 0.0019630664  0.034084336     6385.696 0.0034364132 0.0019626738  0.048929529        0.783 
 5000000 0.0020080745  0.034469348     6385.696 0.0034120015 0.0020076729  0.049441831        0.783 
Loop time of 1623.71 on 2 procs for 5000000 steps with 5000 atoms

Performance: 532113.711 tau/day, 3079.362 timesteps/s
99.8% CPU use with 2 MPI tasks x no OpenMP threads

MPI task timing breakdown:
Section |  min time  |  avg time  |  max time  |%varavg| %total
---------------------------------------------------------------
Pair    | 1227       | 1246.1     | 1265.2     |  54.1 | 76.74
Neigh   | 3.9758     | 4.0009     | 4.026      |   1.3 |  0.25
Comm    | 64.952     | 82.254     | 99.556     | 190.8 |  5.07
Output  | 0.86989    | 0.89532    | 0.92074    |   2.7 |  0.06
Modify  | 234.51     | 235.43     | 236.36     |   6.0 | 14.50
Other   |            | 55.01      |            |       |  3.39

Nlocal:    2500 ave 2515 max 2485 min
Histogram: 1 0 0 0 0 0 0 0 0 1
Nghost:    330.5 ave 339 max 322 min
Histogram: 1 0 0 0 0 0 0 0 0 1
Neighs:    7171 ave 7227 max 7115 min
Histogram: 1 0 0 0 0 0 0 0 0 1

Total # of neighbors = 14342
Ave neighs/atom = 2.8684
Neighbor list builds = 12273
Dangerous builds = 0
unfix  1
undump 1
undump 2

clear
next n
jump ${infile}
jump harmonic.in
Total wall time: 0:57:07
