ITEM: TIMESTEP
0
ITEM: NUMBER OF ATOMS
432
ITEM: BOX BOUNDS pp pp pp
0.0000000000000000e+00 5.5699066003353348e+00
0.0000000000000000e+00 5.5699066003353348e+00
0.0000000000000000e+00 5.5699066003353348e+00
ITEM: ATOMS id type x y z fx fy fz 
2 2 0.158028 0.276153 0.302652 0.225339 -0.0635464 -0.0181909 
20 2 1.20099 0.445687 0.119179 0.0292216 0.474656 0.0391965 
237 1 1.57947 0.312408 0.431311 0.359205 0.102214 -0.271884 
148 2 1.65442 0.239659 0.75788 0.207166 0.0444187 0.475565 
197 1 3.00725 0.666352 0.0411716 0.130039 -0.826624 0.232161 
139 1 4.53141 0.549955 0.123973 -0.781359 -0.623713 0.228394 
136 2 4.70925 0.689117 0.767967 -0.134655 -0.743168 0.416368 
135 1 3.98526 0.719475 0.415918 -0.0270643 -0.27152 -0.328047 
112 2 5.16874 0.571016 0.229092 0.521363 -0.511952 0.908887 
50 2 0.397836 0.87723 0.44031 0.293528 0.126137 -0.242435 
192 2 0.765422 1.28611 0.673101 -0.293851 -0.231755 -0.223535 
375 1 1.64931 1.25246 0.36178 -0.256377 -0.0912808 0.0180632 
90 2 2.41515 0.82078 0.382699 -0.0706777 -0.178841 0.268855 
19 1 3.04121 0.930007 0.0110984 0.187423 0.862717 0.0529087 
8 2 3.34635 0.870487 0.722102 -0.526375 -0.308685 0.537026 
31 1 3.76534 1.01135 0.550941 0.222001 0.491763 -0.0824662 
25 1 4.72369 1.36495 0.420392 -0.449468 0.787602 -0.107672 
177 1 4.87442 1.02276 0.461269 -0.101836 0.244587 0.122456 
22 2 5.39853 1.01785 0.758259 0.560119 -0.241187 0.265778 
374 2 5.42906 1.4623 0.557263 0.349149 0.562905 0.272196 
199 1 0.114073 1.68456 0.128366 0.406422 0.146548 0.258608 
15 1 1.10408 1.86798 0.526059 0.137199 0.206782 -0.289774 
167 1 2.00769 2.132 0.368841 -0.219723 -0.110234 -0.311037 
36 2 2.67021 2.3453 0.60269 0.439728 0.270838 0.140959 
45 1 3.98374 1.93746 0.718241 -0.609748 -0.0756635 -0.186251 
275 1 4.42109 2.07214 0.3855 0.135209 0.0216267 0.00282867 
44 2 4.13109 2.08327 0.0519137 -0.249821 -0.0652151 -0.581899 
13 1 5.06839 2.28386 0.544103 0.309569 -0.204918 0.7874 
46 2 4.94822 2.29309 0.0849681 0.0094963 -0.283956 -0.589375 
408 2 0.416105 2.71321 0.349058 0.0554546 0.0492109 0.00857388 
14 2 1.14156 2.43426 0.189349 -0.370352 0.0803962 -0.0329328 
42 2 1.57982 2.57029 0.137095 0.198809 -0.0398447 -0.170168 
285 1 2.30914 3.10717 0.666781 0.235321 0.113142 -0.204243 
379 1 2.80132 2.41322 0.236582 0.0892298 0.091999 0.109219 
127 1 3.58145 2.68888 0.258628 0.0779166 0.216504 0.0817086 
119 1 4.51343 2.84455 0.256886 -0.275523 -0.0231425 -0.349862 
88 2 4.31953 2.99698 0.712789 0.0327257 0.372102 -0.291437 
89 1 4.9852 3.02196 0.0620271 0.466217 0.313753 -0.208026 
304 2 5.56418 2.38862 0.12192 0.159887 0.0561564 -0.243362 
39 1 0.618751 3.29835 0.402255 0.165092 -0.164484 -0.0680546 
37 1 1.43623 3.29817 0.372471 0.0134679 -0.545801 0.47093 
125 1 1.11619 3.79167 0.766901 0.113312 0.540348 0.257903 
420 2 1.27963 3.90538 0.144811 -0.354434 0.477541 0.0166965 
160 2 1.7495 3.86747 0.395196 0.686917 0.23839 0.340127 
79 1 2.91257 3.67044 0.387925 0.310803 0.197247 0.257017 
106 2 3.76344 3.35727 0.772312 0.0176952 -0.0138038 -0.126479 
185 1 5.52312 3.53257 0.449671 -0.460836 0.119836 -0.00270851 
61 1 0.502666 4.51308 0.48486 0.396957 -0.160588 -0.0536312 
173 1 0.0248457 4.45045 0.730789 -0.221341 -0.0326348 -0.112374 
410 2 1.23882 4.61263 0.11995 0.350837 0.0755957 0.38081 
32 2 1.99754 4.50371 0.0114862 0.203801 -0.0718106 0.0686086 
260 2 3.63186 4.11308 0.582277 -0.396612 -0.0596734 0.3369 
393 1 3.97448 4.5713 0.0327139 -0.172085 -0.183296 -0.63716 
431 1 3.81491 3.98948 0.297741 0.125284 -0.666475 -0.516394 
71 1 4.09585 4.69098 0.251853 0.384733 0.264733 0.118768 
10 2 5.00806 4.22473 0.666432 -0.256703 -0.440312 -0.065086 
422 2 0.840128 5.52234 0.394597 0.0710139 -0.0933835 -0.00252538 
63 1 1.69439 4.86175 0.740872 0.441314 -0.11731 -0.127791 
66 2 2.43483 4.9422 0.789591 -0.163555 -0.384429 -0.251206 
404 2 3.94818 5.421 0.355198 -0.176792 0.140453 -0.234234 
81 1 4.67128 4.94953 0.366405 0.262602 0.196259 0.227346 
124 2 5.47961 5.27521 0.478257 -0.263235 -0.580251 -0.0162531 
391 1 0.18104 0.171201 0.818706 -0.00830085 -0.0368984 -0.159009 
91 1 0.230597 0.524948 1.08823 0.136731 0.737912 0.637469 
65 1 0.814184 0.303522 1.20869 0.387731 0.546495 0.0405018 
3 1 2.41404 0.223485 1.21631 -0.248773 0.228005 0.0568087 
5 1 2.51095 0.0880275 0.824159 0.116173 0.155099 -0.658859 
102 2 4.18468 0.202909 1.15163 0.332881 0.346542 -0.233902 
24 2 5.23821 0.199807 1.07801 -0.628184 0.241498 -0.113626 
212 2 1.33269 1.06392 1.17327 -0.011133 -0.414874 0.335024 
113 1 1.01335 1.53252 0.989012 0.01246 0.213564 0.528057 
256 2 2.03381 1.30261 1.13166 -0.39486 0.560415 0.333077 
376 2 2.04461 1.16099 0.860855 -0.0262343 -0.106996 -0.510285 
163 1 2.4574 0.910155 1.25116 0.472584 -0.517743 -0.158979 
115 1 2.65665 1.54673 1.44713 0.284617 0.309881 0.0362847 
191 1 3.32643 1.54323 0.982384 0.350464 -0.140145 0.269772 
153 1 4.36267 0.880434 1.18932 -0.65439 0.0633531 -0.0347974 
333 1 4.54076 1.30298 1.51177 -0.469507 0.087832 0.45091 
35 1 4.95493 1.26637 1.06713 0.125721 0.400489 0.200659 
203 1 5.18868 1.20709 1.51746 0.674601 -0.199545 0.318686 
97 1 0.435182 2.35721 0.88722 -0.498895 -0.39831 -0.585791 
186 2 0.756883 2.33235 1.17858 0.74693 -0.174959 -0.116686 
380 2 2.3437 2.06544 0.980639 0.303792 -0.640588 0.199998 
250 2 2.13894 2.21778 0.962176 -0.787848 -0.0724339 0.202101 
7 1 3.04812 1.7855 0.907537 -0.0546128 0.149855 -0.25203 
214 2 4.21355 1.89219 0.969479 0.0929185 -0.0840328 0.362228 
254 2 4.49472 1.82072 1.41237 -0.0400996 0.39077 0.115114 
202 2 5.22029 1.92343 1.53524 0.0486116 0.288147 -0.144604 
108 2 0.476716 2.7233 1.21399 -0.480072 0.399191 0.00937652 
200 2 1.0457 3.0669 1.14081 0.148933 -0.392199 -0.454975 
174 2 2.16205 2.70518 1.36886 -0.00560917 0.367338 0.449318 
29 1 1.97937 2.87735 0.908668 -0.514639 0.250683 -0.03635 
392 2 3.01613 2.87095 1.24831 -0.267524 -0.225955 -0.262581 
33 1 3.58729 2.48799 1.15838 -0.0896123 -0.114141 0.165704 
48 2 4.21672 2.85554 0.998032 -0.275786 -0.332222 0.603093 
204 2 4.78456 2.7728 1.07124 0.562792 -0.163447 0.22116 
193 1 0.685602 3.7275 1.05489 0.109783 0.447312 0.056978 
266 2 0.253873 3.43704 0.987517 -0.498589 -0.124919 0.0543295 
211 1 0.375451 3.92013 1.58224 -0.402602 0.277215 0.338655 
273 1 1.21541 3.19145 1.35691 0.710768 -0.00865888 0.405139 
128 2 2.37269 3.77142 0.964832 0.0874627 0.169168 0.10424 
402 2 3.28129 3.55868 1.05933 -0.296416 0.120329 -0.634638 
104 2 3.27753 3.44443 1.40659 -0.361043 -0.339236 0.204672 
109 1 0.252065 4.43819 1.0209 -0.0633143 -0.0275 0.559698 
416 2 0.806322 4.61118 1.31053 -0.167808 -0.304995 0.00191454 
53 1 1.9075 3.9974 1.51017 0.089504 0.142458 -0.238178 
117 1 3.21771 4.2904 1.20177 -0.136607 0.182891 -0.0865476 
77 1 3.86198 4.678 0.827092 -0.135871 0.279003 0.451099 
331 1 4.39595 4.24536 1.19264 -0.175552 -0.359811 -0.0774011 
287 1 5.01333 4.65978 1.11498 -0.0442778 0.126888 0.355602 
143 1 0.701979 5.16151 0.810965 -0.122971 -0.0358872 -0.097932 
83 1 0.194327 5.37306 1.27648 -0.00901674 -0.548252 0.353342 
78 2 1.19043 4.90708 0.842755 0.0343959 -0.22637 -0.347518 
64 2 1.28239 4.83665 1.47287 0.569578 -0.0821731 0.431666 
224 2 1.37282 5.41643 1.17604 0.398557 0.264548 0.220135 
151 1 2.31589 5.24738 1.53708 -0.563879 -0.396062 0.400378 
178 2 3.08714 5.12764 0.804273 0.410615 0.044694 -0.457984 
137 1 3.01077 5.06798 1.3315 0.220183 -0.12305 -0.0193504 
175 1 3.96284 5.52676 0.967238 -0.429888 -0.112987 -0.501278 
122 2 4.13379 5.05781 1.4619 -0.0245365 -0.405446 -0.231009 
216 2 3.98476 5.56933 1.53879 -0.371225 0.353511 0.469707 
73 1 4.87874 5.25108 1.3287 -0.301416 -0.156903 -0.297055 
231 1 1.20912 0.604011 2.25364 0.244417 0.506418 -0.0260293 
80 2 1.6998 0.193003 2.08548 0.392168 0.177449 -0.251886 
138 2 2.73311 0.206223 1.75974 -0.280411 0.394967 -0.0578255 
235 1 2.46113 0.580115 2.31198 0.0445266 0.179653 0.134867 
164 2 3.28877 0.449026 1.69955 0.184701 -0.117339 -0.597464 
54 2 3.35185 0.712841 2.29637 -0.340274 -0.337987 0.248211 
190 2 4.50167 0.677711 1.65076 -0.0770514 -0.290307 0.420972 
84 2 4.92495 0.0596301 1.82258 -0.754163 -0.0793878 -0.0562512 
257 1 5.22207 0.750962 2.13137 0.123176 0.360897 0.11965 
52 2 5.27999 0.166266 1.85523 0.589419 0.436032 -0.233931 
38 2 0.423136 0.843227 2.11731 0.184873 -0.38513 -0.619135 
335 1 0.364625 1.07404 2.18811 -0.0953227 0.806381 0.0137336 
251 1 2.14357 1.17461 1.93327 -0.820715 0.0774598 0.501086 
255 1 2.55461 1.21161 1.80082 0.452516 0.0451655 0.45734 
189 1 3.37656 0.896034 1.87806 0.0823839 0.400793 -0.544082 
110 2 0.231675 2.10871 1.63213 -0.399387 -0.0648559 0.0977076 
183 1 0.773 2.10631 1.65563 0.599915 -0.209455 0.454292 
243 1 0.438528 1.84308 2.21144 -0.0407474 -0.0657748 0.421925 
40 2 1.60231 2.35457 1.69256 -0.0659183 -0.0702646 0.0933015 
246 2 2.51971 2.20675 1.69425 0.0506885 -0.209209 0.389666 
261 1 3.38801 1.69552 1.98254 0.101346 0.183185 -0.232136 
249 1 4.20702 2.27464 1.96315 -0.286563 -0.231471 -0.0583342 
322 2 4.82018 1.70797 2.09859 0.0122837 -0.0598348 0.525416 
201 1 0.421607 3.11225 1.60727 0.0448019 -0.287287 0.145306 
320 2 2.74579 2.77897 1.84424 -0.227976 0.345021 0.195481 
129 1 3.23879 2.66036 2.16389 0.352344 -0.344583 -0.496266 
209 1 3.90428 3.11679 1.71302 0.116189 -0.0616583 0.051717 
253 1 4.41313 2.75308 2.19333 -0.0218481 0.117792 0.263727 
337 1 4.76299 3.14251 1.73295 -0.0751466 0.118571 -0.182441 
307 1 5.2643 2.76587 1.81349 -0.0102588 -0.290004 -0.0353367 
180 2 0.108411 3.27965 1.85193 -0.375253 0.23541 0.293531 
268 2 1.40358 3.67396 1.89242 0.0762001 -0.516346 -0.108733 
385 1 0.818649 3.18417 2.13425 0.291498 -0.188152 0.217833 
236 2 1.95131 3.21833 1.99308 0.13501 -0.122223 -0.00536058 
118 2 2.8278 3.7682 1.89346 -0.46387 -0.349311 0.0137806 
265 1 3.49494 3.63763 1.63955 0.60232 0.396699 0.618178 
225 1 4.75904 3.84158 1.81815 0.0537537 -0.0672314 -0.593923 
207 1 5.12071 3.68701 2.30987 0.188218 -0.196313 -0.302276 
55 1 1.0732 4.3113 1.89997 -0.0517719 0.580965 -0.0317079 
187 1 0.947224 4.03369 2.03549 -0.644153 -0.20048 0.302819 
76 2 1.60748 4.08558 2.19569 0.520781 -0.0239383 -0.0886482 
114 2 3.13376 4.31805 2.04682 0.210275 0.241337 0.00817868 
269 1 2.66007 4.42937 1.79675 -0.542853 0.250994 -0.0116031 
82 2 4.70837 4.22569 2.28222 0.566735 0.145772 -0.334935 
159 1 4.18501 4.71536 1.78392 -0.165983 -0.38594 -0.0430147 
332 2 4.3369 4.16926 2.28099 -0.850816 -0.533297 -0.0597544 
184 2 0.61375 5.07032 1.79849 0.00633522 -0.315316 0.0225433 
327 1 0.458549 5.31483 2.21403 0.0780104 -0.246341 0.137357 
100 2 1.00437 5.56051 1.69908 0.0468924 0.238441 0.133905 
219 1 1.48668 5.29794 2.27175 -0.0179242 -0.358675 0.145369 
166 2 2.88992 5.40335 2.33793 -0.477166 0.198718 0.625576 
226 2 3.17598 5.37335 2.10004 0.594571 0.17341 0.399538 
57 1 3.23098 5.22686 1.85026 0.610516 -0.648798 -0.508633 
227 1 4.16573 5.39414 2.06101 -0.0362756 0.451552 0.620106 
277 1 5.38455 5.01743 1.93207 -0.235539 -0.780308 -0.125741 
270 2 5.37456 5.44892 2.30603 -0.104911 -0.119427 0.669366 
75 1 0.475129 0.310456 2.58743 -0.4314 0.0653612 -0.17112 
241 1 0.191744 0.042396 3.12611 -0.238775 -0.387922 -0.11994 
221 1 0.727392 0.119372 2.5601 0.698535 -0.383768 -0.141411 
240 2 0.545686 0.687258 2.84579 0.249675 0.501185 0.234459 
213 1 2.30185 0.193085 2.74954 -0.0544741 -0.348401 -0.0701465 
130 2 3.1011 0.376045 3.10304 -0.678329 -0.337353 -0.523005 
86 2 3.94349 0.424596 2.80701 0.0774647 -0.621242 -0.266844 
134 2 5.22286 0.171254 3.00463 -0.144723 -0.248324 -0.477561 
281 1 4.8435 0.635413 2.40449 -0.181754 -0.150265 0.254767 
171 1 0.0773685 0.830373 3.1559 -0.226321 0.327015 -0.214189 
280 2 0.735468 1.36083 3.15208 0.484679 0.0109024 -0.468571 
150 2 2.38923 1.46127 2.82253 -0.269984 -0.312547 -0.203762 
293 1 3.49664 0.860841 2.78328 -0.397013 0.497448 0.0120821 
155 1 3.92793 1.12098 2.42128 0.296627 0.570214 -0.29893 
158 2 4.3489 0.887943 2.57611 0.28904 0.175621 -0.0712775 
309 1 5.03763 1.17026 3.03418 -0.198225 0.314373 0.053763 
146 2 1.04605 1.98221 2.80047 0.172821 -0.208543 -0.33231 
321 1 2.90585 1.98914 2.57284 -0.204489 0.301745 -0.40891 
17 1 2.85446 1.738 2.97216 0.019553 -0.208613 0.362123 
305 1 3.60567 1.833 2.81032 -0.00116405 -0.0371017 -0.0451245 
238 2 4.05781 2.30682 2.87478 -0.0270545 0.146004 -0.316692 
313 1 5.27468 2.34353 2.47747 0.052038 -0.0416256 -0.222436 
323 1 5.52416 2.19193 3.05316 -0.170426 -0.0521012 -0.119777 
264 2 0.559483 3.10309 2.75601 -0.466296 -0.0943508 -0.0168007 
234 2 2.00192 2.58604 2.59325 -0.0155334 -0.0923404 -0.0680498 
319 1 2.795 2.83066 2.88132 -0.353504 -0.12907 0.372132 
306 2 3.26859 2.8483 2.5045 0.413284 -0.0286276 0.315516 
172 2 4.76634 2.645 2.86726 0.0704687 -0.123689 -0.0567446 
242 2 1.13214 3.20298 3.00505 0.330744 0.0651986 -0.670727 
141 1 2.20209 3.95365 2.56862 0.525031 -0.0703963 -0.152562 
116 2 2.07163 3.42127 2.78018 -0.0831304 -0.238187 0.077261 
283 1 3.02171 3.49599 2.6059 -0.373137 0.275068 -0.131481 
274 2 3.74827 3.48182 2.50604 0.353789 -0.204306 -0.614339 
330 2 3.89802 3.64238 3.03873 0.730118 0.133271 0.185662 
223 1 3.58721 3.59026 3.11834 -0.386987 -0.0503575 0.621207 
147 1 5.55285 3.94876 2.5896 0.566546 -0.174724 -0.357251 
325 1 4.87257 3.35708 2.74316 -0.438397 -0.259886 -0.236869 
288 2 5.32712 3.51912 3.0155 0.172351 -0.520629 -0.0877294 
133 1 0.157999 4.4956 2.41073 0.229816 0.0234288 -0.554831 
278 2 0.250172 4.63193 2.92975 0.650273 0.211943 0.0867017 
343 1 1.13199 4.13215 2.88832 -0.853782 -0.102532 0.386219 
259 1 1.46647 4.13037 2.85055 0.20485 -0.313486 0.540712 
169 1 2.19973 4.64396 2.80503 0.126449 0.33179 0.174261 
247 1 1.6545 4.59279 2.54682 0.0132776 0.609839 -0.225366 
272 2 3.06365 4.46461 3.14791 0.216196 -0.136709 0.100421 
215 1 3.47213 4.22785 2.43688 0.25462 -0.0137359 0.0163138 
284 2 3.9382 4.46729 3.12304 -0.364869 -0.303346 -0.212475 
286 2 4.5767 4.39063 2.83266 -0.0572385 -0.0451003 0.397976 
217 1 5.01677 4.35658 2.89991 -0.0642663 0.153448 0.0558007 
188 2 1.26713 5.02565 3.15542 8.26419e-05 -0.467068 0.0246755 
282 2 0.818183 5.30905 3.12344 0.243473 -0.127064 -0.232066 
131 1 2.88981 4.87894 2.64457 -0.223518 -0.0680251 0.132175 
157 1 3.71247 5.19069 3.0513 -0.0855539 0.468019 -0.360379 
297 1 3.67157 4.9227 2.89139 -0.0720725 -0.111925 -0.533691 
93 1 4.36403 4.81493 2.44923 0.0522833 0.658826 0.120422 
353 1 0.434627 0.150816 3.81682 -0.138468 0.0540034 0.27462 
401 1 0.0732703 0.663765 3.65504 -0.12577 0.447462 0.259028 
140 2 0.978075 0.626221 3.4025 0.360871 -0.341223 -0.662479 
208 2 1.02192 0.778714 3.83177 0.291983 0.242242 0.11077 
210 2 2.24775 0.51478 3.21904 -0.0994517 0.327461 0.00228998 
233 1 1.67101 0.775393 3.87203 0.231783 -0.0746235 -0.251394 
149 1 2.53241 0.253768 3.85673 -0.187328 -0.1996 -0.205176 
156 2 3.38702 0.620571 3.27121 0.17313 0.312032 0.233184 
228 2 3.29004 0.160863 3.5022 -0.0599978 -0.271442 0.324731 
111 1 4.2177 0.718977 3.33271 0.44374 -0.0279723 0.29644 
145 1 4.95453 0.316167 3.31352 -0.59088 0.168663 0.0373738 
74 2 5.18137 0.126353 3.77724 -0.225143 -0.278101 -0.329906 
229 1 0.625541 1.08438 3.67813 -0.0155963 0.035211 0.0255725 
244 2 1.82969 1.38912 3.21803 -0.205172 0.0022637 0.115066 
425 1 2.48614 0.907501 3.86724 -0.0762521 0.069157 0.0980014 
352 2 2.93738 1.05899 3.63353 -0.0200467 0.457083 -0.381288 
252 2 3.86989 1.16491 3.35893 -0.198602 0.328613 0.0305611 
182 2 0.176486 1.64646 3.20149 -0.370939 -0.0764737 -0.191772 
230 2 0.572531 1.84608 3.57529 0.164536 0.138056 0.0722872 
324 2 0.783056 2.35296 3.2562 0.00192098 0.160515 -0.19951 
312 2 1.42892 1.70356 3.96652 -0.247185 0.184067 -0.705221 
329 1 2.47683 2.30975 3.55595 -0.28292 0.00380283 -0.130052 
298 2 3.27075 1.82008 3.66316 -0.0636591 -0.517539 -0.105722 
377 1 3.20921 2.27254 3.65531 -0.299969 0.39606 -0.0302453 
407 1 4.18216 1.73926 3.2497 0.463249 -0.0750257 0.122801 
294 2 5.28238 1.68198 3.94077 -0.0721707 -0.23609 -0.38295 
336 2 4.91696 2.1998 3.63995 -0.00959318 -0.447572 -0.372857 
326 2 0.191254 2.64043 3.36515 -0.268247 0.369098 0.0856794 
395 1 0.698547 2.48609 3.93336 0.606871 -0.0465418 -0.326738 
341 1 1.3568 2.55066 3.1885 0.530385 -0.107469 0.156801 
344 2 2.13073 3.17789 3.49279 -0.0965636 -0.370352 0.0408767 
222 2 3.72266 2.38897 3.65595 0.187562 0.240084 -0.150989 
262 2 4.17844 2.75132 3.31992 -0.179698 0.413387 0.0964687 
359 1 4.81897 2.72164 3.53971 0.0701127 0.25493 -0.439379 
120 2 0.0506242 3.52585 3.34413 0.280425 -0.318506 0.0823873 
271 1 0.607607 3.28272 3.94122 0.668339 0.138647 0.0377619 
409 1 0.328946 3.32416 3.90015 -0.489979 0.129003 -0.298836 
384 2 1.05755 3.2791 3.33668 -0.223607 0.0863052 0.320679 
258 2 1.37217 3.57071 3.66238 0.270427 0.198523 0.0687906 
415 1 2.20405 3.79806 3.75829 -0.462973 -1.02456 -0.128401 
308 2 2.87155 3.51016 3.39045 0.071624 -0.122853 0.149477 
276 2 4.72346 3.58868 3.3059 -0.430634 0.0814058 0.444614 
196 2 0.189766 4.70348 3.84077 0.144109 -0.157917 0.120228 
316 2 0.549591 3.99214 3.77455 0.062537 0.138203 -0.592527 
132 2 1.84788 4.33801 3.71733 -0.92595 0.426964 -0.210858 
198 2 2.35138 4.172 3.63024 -0.371711 0.123189 -0.607442 
161 1 2.587 4.32124 3.47431 0.422158 0.611025 -0.837918 
369 1 2.71627 4.18515 3.92158 0.802329 0.133511 0.142178 
315 1 4.33817 4.42825 3.45806 0.530862 -0.154803 0.0940662 
318 2 4.03225 4.25741 3.70121 0.00790071 -0.457703 -0.137611 
162 2 5.36439 4.03307 3.35882 -0.000602022 0.217845 0.698583 
314 2 5.40292 4.61172 3.19469 -0.173043 0.3922 0.130115 
144 2 0.367855 5.15311 3.47069 -0.19842 -0.383208 0.0749361 
279 1 0.796428 5.54835 3.81035 0.373377 -0.332513 -0.0490974 
267 1 1.72308 5.44711 3.20043 0.0271408 0.108351 -0.353898 
354 2 1.76564 5.41227 3.67258 -0.0200994 0.162211 0.183764 
154 2 3.54045 5.24799 3.56992 -0.411608 0.0157565 0.0628567 
69 1 3.79439 5.13237 3.92224 0.174837 0.335403 0.311945 
290 2 4.28073 5.52489 3.26451 0.142975 0.0738403 -0.0665364 
345 1 4.46063 5.03867 3.57811 0.128986 0.236282 -0.13454 
289 1 5.04017 4.88382 3.75872 0.143507 0.0430157 -0.574443 
350 2 0.794115 0.14234 4.71882 -0.163621 -0.334526 -0.0344159 
292 2 1.48021 0.678305 4.54256 0.480105 0.276387 0.505057 
373 1 0.811154 0.547888 4.46878 -0.559388 0.703785 0.0651424 
342 2 1.1682 0.292985 4.29494 0.347914 -0.18974 -0.174728 
296 2 2.58515 0.175336 4.54865 -0.592245 -0.0592577 0.161814 
368 2 3.19236 0.522219 4.07772 0.00948821 -0.284978 0.0857858 
68 2 3.23875 0.43282 4.70179 0.390409 -0.276726 0.243946 
370 2 4.1203 0.240839 4.12001 -0.369152 0.0684669 -0.066206 
94 2 4.67437 0.19038 4.28956 -0.618047 -0.0116949 -0.125104 
291 1 5.39306 0.243196 4.1458 0.480768 0.438738 0.231132 
371 1 4.90455 0.21006 4.46543 -0.222559 0.250354 0.56797 
302 2 0.498717 1.30737 3.99683 -0.370953 0.0614028 0.304435 
301 1 0.00165473 1.43597 4.54662 0.0527227 -0.725637 -0.368796 
218 2 0.982562 1.45255 4.38492 -0.195868 -0.566384 -0.178111 
18 2 2.13192 1.31875 4.05982 0.16744 -0.0528515 -0.0837586 
103 1 2.70225 1.12237 4.73075 0.232838 0.243681 -0.438044 
142 2 3.40767 0.829806 4.07026 0.245786 0.24022 0.0580275 
9 1 3.4357 1.55752 4.26924 -0.291084 -0.28382 0.0717749 
168 2 3.97963 1.01768 3.99939 0.3222 0.0810036 0.241677 
366 2 4.43541 1.37273 4.52586 0.256783 -0.413079 -0.296416 
12 2 5.18881 1.03487 4.65602 -0.223621 0.0212737 -0.283631 
170 2 0.59187 1.98268 4.35037 0.408218 -0.166768 -0.208709 
303 1 0.0974582 1.82325 4.71074 0.247574 -0.0321691 0.259548 
383 1 0.365746 2.27749 4.19829 -0.612641 0.163295 -0.197848 
245 1 1.58439 1.60839 4.48936 0.121689 0.000518795 0.037457 
389 1 2.1902 2.19855 4.35493 0.28426 0.065237 0.0484894 
378 2 2.05858 1.86796 4.22344 0.307916 -0.186958 -0.253827 
16 2 3.51835 2.0455 4.57942 -0.0666907 0.524964 -0.209997 
365 1 4.05511 2.00018 4.08038 0.174481 -0.303855 -0.209763 
347 1 4.71218 2.2598 4.27176 0.183479 -0.47411 0.0888173 
372 2 5.42933 1.95628 4.61428 -0.655052 0.67171 -0.166487 
399 1 0.696202 2.81446 4.19028 0.489555 0.266868 0.369868 
411 1 1.45679 2.91829 4.6914 0.10296 0.430411 -0.0374761 
317 1 1.83776 2.48499 4.53238 -0.339311 0.296467 0.193475 
248 2 2.61871 2.52022 4.49745 0.450829 -0.0771139 0.163559 
232 2 2.68687 2.93371 4.13474 -0.112138 0.251061 -0.402403 
310 2 3.41434 2.90158 4.17284 -0.142387 -0.455952 0.28206 
334 2 4.15428 2.61919 4.31279 -0.465075 0.313011 -0.0821021 
195 1 5.12781 3.045 3.989 0.260708 0.365195 -0.699579 
397 1 5.52735 2.97003 4.4695 0.444462 -0.358024 0.187337 
403 1 4.81685 2.77471 4.13862 -0.298451 -0.0184212 -0.00220662 
47 1 5.25121 2.92756 4.77087 -0.116589 -0.41756 0.787522 
398 2 0.157493 3.66031 4.44261 -0.311733 0.248122 0.257346 
339 1 1.10717 3.86407 4.63755 0.29398 -0.178324 0.0037667 
387 1 1.36702 3.85473 4.27124 0.318034 -0.224341 -0.248067 
6 2 2.123 3.91021 4.25898 -0.424286 -0.190061 0.540809 
328 2 2.4425 3.33064 4.67075 -0.274162 -0.365204 -0.0181486 
263 1 3.50439 3.21231 4.07953 0.00396604 0.467054 -0.425283 
417 1 3.96495 3.78611 4.20328 0.0123261 -0.313894 -0.270386 
346 2 4.19384 3.95868 4.76211 0.179371 -0.107877 0.296234 
419 1 4.47413 3.3094 4.65727 -0.0374204 -0.0347183 0.233155 
413 1 4.91675 3.97747 4.22393 -0.124962 0.00750115 -0.268554 
72 2 5.01993 3.43528 4.46569 -0.100871 0.554727 0.225496 
206 2 0.0404648 4.70779 4.6931 0.0864681 -0.352037 0.328853 
338 2 0.499475 4.17511 4.37077 -0.389418 0.330941 0.187221 
355 1 0.92805 4.36858 4.08622 0.330129 0.461958 -0.319927 
351 1 1.78172 4.67096 4.53709 0.199519 -0.00649456 0.0213888 
295 1 3.08123 4.62325 4.5444 -0.329301 0.153751 -0.28089 
311 1 2.80681 4.13915 4.24557 0.5964 -0.174031 0.621493 
357 1 3.80273 4.33163 4.07955 -0.439345 -0.21826 0.262158 
360 2 5.05836 4.49659 4.25899 0.149413 -0.569461 0.0936559 
361 1 0.428574 5.18592 4.57474 0.278763 -0.132231 -0.0925442 
414 2 1.18514 5.00401 4.25149 -0.215476 -0.28278 -0.129053 
367 1 1.46431 5.40035 4.30442 0.518719 0.126528 -0.0131322 
205 1 2.20624 5.00443 3.99561 -0.229751 -0.0407682 -0.319919 
390 2 3.05959 5.42184 4.39509 0.311009 -0.350647 -0.0776977 
428 2 2.45319 5.02544 4.14542 0.454961 -0.0606223 0.231193 
299 1 3.72239 4.81029 4.13244 -0.0570743 0.00462524 0.341373 
430 2 4.73309 4.90172 4.24731 -0.880289 0.0432833 0.183553 
358 2 4.97028 5.03679 4.77072 -0.34548 -0.171759 0.588639 
432 2 5.3109 5.16244 4.29201 0.370042 0.0333474 -0.212614 
87 1 0.530798 0.631426 5.27035 0.355022 0.453796 0.255934 
363 1 0.324135 0.521299 5.19259 -0.460216 -0.0431305 -0.192182 
423 1 0.893451 0.124013 5.31758 -0.113943 -0.0331609 0.0818098 
43 1 2.73338 0.578404 5.05437 -0.429036 -0.46582 0.0457554 
300 2 4.25838 0.659887 5.03607 -0.042981 0.297592 -0.567642 
92 2 4.15849 0.228947 5.27376 -0.303432 -0.429831 -0.160936 
96 2 5.09711 0.660403 4.99954 -0.058628 0.051621 -0.649815 
98 2 5.17432 0.64671 5.51212 0.981016 0.266224 -0.221908 
70 2 4.95606 0.658552 5.43046 -0.577658 0.0123116 -0.674633 
1 1 5.49157 0.0584317 4.80348 0.220871 0.0761934 0.0610912 
362 2 0.346892 1.12292 5.02385 0.36212 0.191464 -0.135679 
220 2 1.54414 1.42416 4.86608 0.266689 -0.253342 0.39459 
364 2 1.16153 1.10223 5.42732 -0.138041 0.130888 -0.0673336 
426 2 2.14861 1.12853 4.92567 -0.208178 -0.0646033 -0.284614 
4 2 2.14747 0.999464 5.4604 -0.146783 -0.175162 0.0131123 
394 2 3.75642 1.38356 5.26121 -0.146324 -0.22185 0.658983 
21 1 3.52034 0.858661 4.96727 0.322026 -0.00406521 -0.203948 
11 1 4.60041 1.28835 5.44824 -0.237624 0.495525 -0.510271 
23 1 5.5301 1.50633 5.37349 -0.408639 -0.341121 0.0715403 
396 2 0.443568 2.09484 5.10104 -0.26761 0.471794 0.484339 
181 1 0.95141 1.9134 5.05353 0.362474 0.278173 0.954045 
28 2 0.949535 1.74386 4.86824 0.0187964 -0.495929 -0.00810658 
400 2 1.92742 1.72182 5.50606 -0.096668 0.18426 -0.259788 
26 2 2.65266 1.69775 5.2515 -0.299769 -0.362302 0.237156 
165 1 3.01429 1.94817 5.10561 0.0847678 -0.422653 -0.339526 
424 2 3.80755 1.63772 4.98367 -0.043975 0.163448 -0.0448434 
381 1 3.34546 2.26621 5.26775 0.62002 0.219807 0.0645803 
406 2 4.29065 1.70435 4.8313 0.143964 0.256736 0.0833975 
239 1 4.95972 1.98542 4.90898 -0.225465 0.0705929 0.389375 
194 2 0.352826 2.94508 5.21251 -0.0148589 -0.209087 -0.0792607 
27 1 0.927814 2.57578 4.90137 0.15733 0.289002 0.0684476 
382 2 1.87648 3.11891 5.48541 0.382948 -0.0683038 -0.328975 
105 1 3.11112 3.15137 5.09524 0.222627 -0.515176 -0.258476 
101 1 2.70764 2.42595 5.26467 -0.673785 0.373719 -0.201206 
121 1 4.38171 2.5178 4.87942 -0.205396 0.139402 0.63744 
49 1 0.459852 3.94485 5.40018 -0.00532033 -0.123126 0.277674 
386 2 0.785361 3.71394 4.78056 -0.166649 -0.504344 -0.0605993 
59 1 0.229801 3.51714 5.27305 -0.637418 -0.174812 -0.158466 
388 2 1.02265 3.33548 5.33585 -0.0600306 -0.556951 -0.118573 
340 2 1.42851 3.67039 5.323 0.380043 0.0421463 -0.55044 
107 1 2.82023 3.22154 5.52927 -0.115346 -0.382757 0.224882 
429 1 2.54604 3.77002 4.83919 -0.133293 0.392371 0.022783 
51 1 2.49278 3.71894 5.51471 -0.578347 0.298104 0.0838195 
412 2 3.28641 3.62705 5.07206 0.364841 0.454534 -0.0556085 
418 2 3.81356 3.30599 4.78247 0.0579207 -0.30832 0.265459 
60 2 4.64335 3.92525 5.50352 -0.170417 -0.0982694 -0.0067004 
348 2 4.41619 3.38874 5.55038 -0.420328 0.136733 -0.197708 
123 1 0.559975 4.27276 5.23636 -0.0635709 -0.000411006 -0.316796 
41 1 1.1862 4.50101 5.12136 0.273562 -0.116949 -0.417983 
30 2 1.75269 4.23713 4.92359 0.394637 -0.199774 0.144637 
34 2 2.9848 4.25831 5.33462 -0.0972798 -0.167871 0.447022 
56 2 3.21874 4.48323 4.96588 0.18202 -0.586709 -0.086296 
58 2 4.12964 4.37548 4.85274 0.222283 0.263715 0.0624898 
95 1 4.93 4.24536 5.47308 0.0379979 0.233997 -0.353181 
349 1 5.52294 4.41791 5.5545 -0.390868 0.256679 -0.162726 
427 1 0.750738 4.87508 5.27583 -0.0599834 0.199374 -0.578125 
62 2 0.633284 4.92501 5.44136 -0.672838 0.626329 0.536552 
356 2 1.371 5.24559 5.01421 0.129051 -0.456628 -0.336377 
85 1 1.42831 5.44124 5.20966 0.292802 0.225933 0.341359 
152 2 2.05023 5.50597 5.30155 0.179997 0.5543 -0.0262948 
67 1 2.27549 5.15146 5.38148 -0.131582 -0.174199 0.0225931 
176 2 2.82334 5.06839 5.42611 -0.295391 0.548675 0.237171 
126 2 3.02075 4.92043 5.38765 0.432937 -0.0219326 0.38433 
405 1 3.56143 4.93434 4.92715 -0.0618658 0.345846 -0.192793 
99 1 3.79164 5.04016 5.02944 0.65161 0.730969 0.109382 
179 1 4.87053 5.36507 5.38694 -0.314097 -0.125751 0.00054268 
421 1 5.48708 5.49836 5.39857 0.203532 -0.653535 -0.142636 
ITEM: TIMESTEP
5000
ITEM: NUMBER OF ATOMS
432
ITEM: BOX BOUNDS pp pp pp
0.0000000000000000e+00 5.5699066003353348e+00
0.0000000000000000e+00 5.5699066003353348e+00
0.0000000000000000e+00 5.5699066003353348e+00
ITEM: ATOMS id type x y z fx fy fz 
40 2 5.44708 5.34658 0.782631 -0.589236 0.204098 0.133212 
206 2 0.610546 1.45435 0.830752 -0.424176 -0.616998 0.120276 
66 2 0.5389 0.759911 4.89995 -0.0395625 -0.250778 0.507017 
361 1 2.12032 1.00155 0.701959 -0.0838855 0.218713 0.187298 
5 1 2.44285 5.57791 5.53092 -0.513413 0.0130718 -0.723188 
3 1 2.30244 5.1355 1.04322 0.185691 0.0519431 0.397046 
51 1 3.21851 1.4832 0.0112747 0.105135 0.268411 -0.84128 
142 2 3.28569 0.717013 0.90868 -0.0377798 -0.207857 0.0220451 
179 1 4.39214 1.01625 0.772901 0.13928 -0.517092 -0.381465 
181 1 4.96597 5.39102 0.170573 -0.0784913 0.123089 -0.231315 
356 2 4.81228 1.17486 0.233353 -0.286706 -0.129122 -0.0602327 
423 1 1.54392 0.671155 0.226476 -0.147765 0.0501041 0.854226 
378 2 1.31339 2.14967 1.27968 0.245676 -0.0204371 -0.0518774 
324 2 1.86979 2.00136 0.126749 0.231952 0.166922 0.314744 
124 2 2.59215 0.497997 0.524633 0.343245 1.00549 -0.0413046 
4 2 4.05428 1.33581 0.714763 -0.315896 0.22035 -0.503522 
113 1 4.51918 0.0964094 5.2647 0.054087 0.145439 0.42367 
28 2 0.348021 0.943707 0.291495 -0.0483579 -0.123214 -0.0089125 
165 1 4.76421 0.575879 1.37319 0.288172 -0.0456277 -0.301148 
344 2 0.101246 1.87068 0.434316 -0.134759 0.271716 -0.244043 
335 1 1.06303 1.61389 0.614965 0.0990838 0.230598 0.0517363 
38 2 2.07406 2.17827 4.25223 -0.310819 -0.165615 0.107983 
60 2 2.22166 1.35367 0.198689 0.24938 0.017795 -0.0651618 
21 1 1.8359 1.67713 0.988013 0.101907 0.301951 -0.422521 
139 1 5.22307 1.37042 0.940198 -0.247847 -0.697745 0.220503 
328 2 3.30193 1.63016 0.457446 0.668568 0.613527 0.417045 
122 2 4.74175 2.36131 0.67729 0.190055 -0.445613 0.372762 
201 1 4.18659 1.56075 5.37872 -0.133643 0.297517 0.333503 
194 2 5.45978 2.09708 1.12861 -0.0384633 0.816723 0.265861 
33 1 5.23572 1.43012 0.232076 -0.159966 0.134791 -0.117874 
355 1 4.5515 2.25529 -0.0361865 0.0889596 -0.130047 -0.305107 
52 2 0.302843 2.94281 1.03664 -0.0100694 -0.268952 0.317915 
151 1 0.996803 2.64263 0.31652 0.101058 0.0298101 0.46836 
357 1 2.81679 2.72884 0.300919 -0.054058 -0.125703 -0.073932 
237 1 2.1396 3.3804 1.38775 -0.302991 0.00125703 0.235232 
381 1 2.23327 2.82708 5.59831 -0.0680609 -0.519159 0.147263 
11 1 3.33604 3.05712 0.273025 -0.25756 -0.229376 -0.166006 
391 1 3.61185 2.27533 4.66292 0.322542 0.195471 0.58323 
385 1 0.233253 3.53581 1.86832 -0.423013 -0.315762 -0.638466 
417 1 4.56737 2.92792 0.529644 0.215001 0.292947 0.0152044 
39 1 1.74557 3.69464 0.602377 0.133074 0.0731192 0.142077 
10 2 2.39045 4.07237 0.980375 -0.00422037 -0.225498 -0.152708 
382 2 3.69453 3.58513 0.661736 -0.0253313 -0.0354205 0.449952 
304 2 3.40283 4.48812 0.264531 -0.157786 -0.00192122 -0.437508 
384 2 2.21942 3.35691 0.112528 0.430143 0.536017 0.128425 
273 1 4.09993 3.30793 0.416032 0.680106 -0.219259 0.578623 
47 1 4.61177 3.49144 1.2835 -0.0256017 0.212398 -0.547234 
49 1 4.39529 3.98223 1.70063 -0.427254 0.681647 -0.0472412 
340 2 5.5649 3.70628 0.813758 -0.208018 -0.50299 -0.296758 
147 1 5.3821 4.63684 5.14017 0.0215998 0.169858 0.223407 
286 2 2.11215 4.79566 0.313974 -0.153452 -0.160244 -0.0401903 
169 1 1.26687 3.96988 1.5704 0.233744 -0.0835957 -0.259275 
136 2 2.25477 4.28344 5.29753 -0.00158143 -0.239103 0.0936101 
298 2 1.45884 4.51751 4.48894 0.0459082 0.301979 0.585669 
68 2 3.38626 3.99394 0.536798 -0.548743 -0.255321 -0.186078 
332 2 5.08648 4.77763 0.339142 -0.235436 0.0998041 0.102145 
197 1 0.132361 5.31485 0.796092 0.521303 0.00811065 0.0189544 
83 1 0.964725 4.6927 0.172099 0.0869101 0.0240923 -0.610832 