LAMMPS data file via write_data, version 11 Aug 2017, timestep = 100000

432 atoms
2 atom types

0.0000000000000000e+00 5.5699066003353348e+00 xlo xhi
0.0000000000000000e+00 5.5699066003353348e+00 ylo yhi
0.0000000000000000e+00 5.5699066003353348e+00 zlo zhi

Masses

1 1
2 1

Pair Coeffs # lj/powerlaw

1 1 1 2
2 1 0.9 2

Atoms # atomic

93 1 3.2867601694735599e-01 5.2744945978875357e-01 8.4227091907747881e-02 -1 0 -2
221 1 2.1152233935279760e-01 8.5342055154609395e-02 7.3537784790177541e-01 -1 -1 0
358 2 9.9448565704289571e-01 5.8928750940316965e-01 6.7850777660414574e-01 0 1 0
54 2 1.7505725216149242e+00 2.4038175276307680e-01 4.6770563413906319e-01 1 0 -1
402 2 3.0041457676794461e+00 2.1024321752594000e-01 4.4853497625183764e-01 -1 2 -1
384 2 3.7343188993897019e+00 4.9767718487956886e-01 5.5167373691612087e-01 0 -1 1
410 2 4.4000047605721342e+00 7.3720914398150295e-01 6.2217918378795023e-01 -2 4 2
37 1 4.4841899817057156e+00 8.5748695876810721e-02 2.4337490631976250e-01 0 2 -1
141 1 5.1969523380575051e+00 6.9973443915860845e-01 5.6439914384219270e-01 -1 3 0
391 1 3.0635951866535738e-01 9.8188452372958313e-01 7.7750927192438668e-01 1 3 0
99 1 8.2065561687955635e-01 1.1014021728291215e+00 6.1232948186996955e-02 -1 0 0
230 2 1.5442899002218433e+00 1.0087470344829010e+00 2.2032036041316430e-01 2 2 -2
252 2 1.1037974842508136e+00 1.4254336204255600e+00 8.0718991791856431e-01 0 -1 0
30 2 2.3602131946157288e+00 7.2556124661241084e-01 3.3437648055591240e-01 -1 3 -2
222 2 2.8891453541442571e+00 1.3317499037485154e+00 1.9479197340597876e-01 1 2 0
306 2 3.1408466430716384e+00 8.9040928711496004e-01 7.8210352675236339e-01 1 1 0
59 1 3.7672906904245460e+00 1.2612953696659845e+00 3.3685964215459130e-01 0 1 -1
64 2 4.6516254553063279e+00 1.3983212651626153e+00 3.4013154556737668e-01 -1 0 0
152 2 5.3226694404107855e+00 1.5838077349126714e+00 5.7765459687059495e-01 -1 -1 1
411 1 4.8495776516031980e-01 1.6928604406079597e+00 3.8751138284571729e-01 1 0 1
293 1 1.3256956594288947e+00 1.8091831591601779e+00 5.2112236427520220e-02 0 1 1
23 1 1.0149868012890306e+00 2.2354424757427158e+00 7.2409051513294986e-01 0 1 -1
330 2 1.8134186691192922e+00 1.6909818961561003e+00 6.0649304349731026e-01 -1 1 -1
20 2 2.4299707668906749e+00 1.9393612978304677e+00 1.5257520336346764e-01 0 1 0
317 1 3.1742213963684831e+00 1.9187953726756277e+00 5.8746106400583042e-01 -1 -1 -1
115 1 4.0314581253880037e+00 2.0948149051025666e+00 3.0082883691148676e-01 -2 1 1
332 2 4.2417673207847004e+00 1.6399956081127227e+00 8.4435323943188567e-01 1 2 -1
403 1 4.8147936605916888e+00 2.2040995410664164e+00 3.1488417743129288e-01 -1 0 2
223 1 1.0210418528613273e-01 2.4017486417836187e+00 5.0126341256704476e-01 1 0 -2
318 2 9.5057014266894735e-01 2.9123459158628049e+00 5.0480892919376052e-01 -1 0 -1
425 1 1.7721349851337844e+00 2.5358331554566265e+00 4.3948192253308754e-01 -2 2 0
246 2 2.2741357785660652e+00 3.1592283701230417e+00 6.9047390283577403e-01 0 -1 1
405 1 2.7059176499592863e+00 2.6253756495376654e+00 3.8732918075769535e-01 -2 2 0
301 1 3.6030519578913278e+00 2.7503291400782914e+00 3.8224252646017537e-01 -3 1 2
67 1 4.3332614679745607e+00 2.9949957116912311e+00 4.5729893493349855e-01 -2 -1 1
156 2 4.9577182495393552e+00 3.0552271703924183e+00 7.9717019176880921e-01 -2 -2 0
127 1 1.2941512334728014e-01 3.2268538119349706e+00 5.1062026577806563e-01 2 0 1
107 1 8.8907567240693730e-01 3.6767754337683707e+00 1.9660399509105134e-01 0 1 -1
356 2 1.6277745699312260e+00 3.3893300899546190e+00 2.6411202933204619e-01 -1 1 -1
414 2 2.1311637852384751e+00 3.9073778497617124e+00 6.7569293803355401e-01 -1 0 -1
106 2 2.5597812786162701e+00 3.6299287325800780e+00 1.4643497207144748e-01 -2 -1 -1
284 2 3.0928345493317857e+00 3.3501367014831729e+00 5.1358564978600474e-01 -1 -1 -1
323 1 3.9089713058990565e+00 3.5095229738130893e+00 6.6566407011013240e-02 -1 0 0
7 1 4.4848422910954708e+00 3.7812722949364894e+00 7.7710768509248807e-01 -1 1 -2
142 2 4.9145407667269607e+00 3.5620540656506479e+00 1.7341486850163276e-01 -2 2 1
147 1 4.7908598453640411e-01 4.2061891865952914e+00 7.4536559847924022e-01 0 0 0
344 2 1.0636809081126133e+00 4.7106937994845444e+00 7.2743037089542528e-01 -1 0 0
174 2 1.5501307783753169e+00 4.2595697991065906e+00 3.1629925034389106e-01 -2 0 0
251 1 2.3258734376354564e+00 4.6357842687379254e+00 3.2760520811223354e-01 3 1 0
273 1 2.9466502926463911e+00 4.1554987747205301e+00 5.6920025801512197e-01 -3 -1 2
151 1 3.7525755682883672e+00 4.3755762938414051e+00 5.5401816934309067e-01 -2 -2 -1
84 2 4.3875917708465018e+00 4.1908317552184551e+00 3.9138790696914755e-02 1 -2 -1
27 1 5.0612036835577285e+00 4.3807139834652347e+00 3.5590497174664393e-01 -2 -1 -2
388 2 2.6905292775975143e-01 4.8199327890492363e+00 3.2476439961983905e-01 -1 0 1
415 1 8.2110358632728153e-01 5.4092985572840862e+00 3.1035537872042035e-01 0 0 1
243 1 1.5138477270536126e+00 5.1382292682559605e+00 2.0318051391059921e-01 -2 0 0
73 1 2.4030288293614555e+00 5.3939606407486016e+00 2.6141674715257868e-01 0 -2 1
5 1 3.0623076249382661e+00 4.9361437544907716e+00 7.2914028046397550e-01 -2 -1 0
150 2 3.7075214125873317e+00 5.2618108304927205e+00 4.2361464584683700e-01 -2 -1 0
120 2 4.4046761539433703e+00 4.8454422690230299e+00 5.8082345316109540e-01 -1 -2 1
365 1 5.2816602753039588e+00 5.4653288681946046e+00 5.8019761278462090e-02 -1 0 0
302 2 5.3457020740255479e-01 3.1866111001147335e-01 1.4035597578772561e+00 -1 2 0
350 2 1.3280486140355912e+00 6.6435260862879419e-01 1.4798376476707933e+00 0 1 1
381 1 1.8154775004429011e+00 9.1616720307194185e-02 1.3349795357435312e+00 0 2 2
430 2 2.5120749638815134e+00 5.0159093746840910e-01 1.0648735723703056e+00 1 1 -1
408 2 3.7947674368081881e+00 4.4717185109815616e-01 1.4891815712885046e+00 1 0 0
165 1 3.2404242088766035e+00 7.9136986982434543e-02 1.1181701133847501e+00 1 0 2
346 2 4.6334784025475964e+00 3.5517265528661701e-01 1.3601803361275011e+00 0 1 -1
176 2 5.3606878322414246e+00 5.1160972306656061e-01 1.2788353916920088e+00 -2 -2 -2
119 1 7.9031446497938107e-01 1.1148887426200516e+00 1.3619416467694097e+00 1 0 1
225 1 1.7478217558500173e+00 8.9227065838545316e-01 9.1624000565858355e-01 -1 0 0
55 1 1.7190479686152680e+00 1.5208104503651583e+00 1.4450270029636783e+00 0 -1 0
271 1 2.4824466948580839e+00 1.3583966431507115e+00 8.9220500650876855e-01 1 0 0
114 2 2.7299795288429141e+00 1.4674887543059674e+00 1.5469180152923518e+00 1 1 0
394 2 3.4304576302380787e+00 1.4712319703492316e+00 1.0992820451686753e+00 1 0 1
210 2 3.9722723414928311e+00 9.8410727672950127e-01 1.2102224380339019e+00 0 1 0
126 2 4.7531375725142091e+00 1.0886601006559149e+00 1.1704773083420179e+00 -1 0 -1
282 2 5.4498123928646285e+00 1.2642015245485627e+00 1.3662568929446877e+00 -2 1 -1
132 2 2.8576139868236344e-01 1.8389704275823879e+00 1.1608430379863561e+00 0 2 -1
300 2 9.6907399269667360e-01 1.9590071978679979e+00 1.4386715561604830e+00 0 -3 -1
339 1 1.6946777531033719e+00 2.3027305518957539e+00 1.1993181070081675e+00 2 -1 1
83 1 2.4085249814719578e+00 2.1548837577986233e+00 9.6581626418077426e-01 2 1 0
274 2 3.0675376244382808e+00 2.1377802799441530e+00 1.3844562913287493e+00 0 0 1
40 2 3.7580479798666517e+00 2.2262454720139782e+00 1.0737372316671094e+00 -2 -1 -1
270 2 4.4634918043223744e+00 2.3915586287926023e+00 1.0310010240157610e+00 -3 -1 0
128 2 4.2080105373514183e+00 1.7425599912326326e+00 1.5163670945302814e+00 0 1 1
428 2 4.9717498480258424e+00 1.8452489123312243e+00 1.1274043844326671e+00 0 0 2
133 1 4.6515415730247867e-01 2.6214630243169421e+00 1.2649580685134971e+00 -1 1 0
29 1 1.5243752281200884e+00 3.0321071112897684e+00 1.0349929937248139e+00 -1 -1 1
378 2 2.3474702254456754e+00 2.9003312875493590e+00 1.3393274831375903e+00 -1 1 -3
97 1 3.1339039949488576e+00 2.8188732274391008e+00 1.0523178862457765e+00 1 -1 -1
313 1 4.0577333371636719e+00 2.9967281676589872e+00 1.1657459140677227e+00 1 0 0
290 2 4.7790372132835515e+00 3.0894523813730181e+00 1.5669125761874008e+00 -2 -1 0
239 1 5.2711707161538088e+00 2.4789063851536852e+00 1.1575675004820865e+00 0 2 1
240 2 5.4906289612408949e+00 3.2140998997215280e+00 1.2908850620109118e+00 -1 0 0
130 2 7.0755126188413164e-01 3.3526258063497125e+00 1.0455287454449447e+00 -3 1 0
162 2 3.4497978651298389e-01 3.8144848996263323e+00 1.4581491695224211e+00 0 0 0
261 1 1.2601114519002565e+00 3.8174823758973782e+00 8.4811447920520233e-01 1 -1 0
377 1 1.9507763815714463e+00 3.6515158616622219e+00 1.3980258375229135e+00 -1 0 0
189 1 2.7880651871883355e+00 3.6124249944005395e+00 1.2172362699873311e+00 0 1 -2
197 1 3.6785137540681796e+00 3.6190200752162931e+00 8.2838845273445205e-01 -1 3 0
294 2 3.5286772888479470e+00 3.3473463126162293e+00 1.5711386091320281e+00 -2 2 1
204 2 4.2320207424340976e+00 3.6865837973173563e+00 1.5184090178050402e+00 -2 0 1
427 1 5.3410319982920624e+00 3.8676349685400568e+00 8.6239785105075961e-01 -1 0 2
406 2 4.9746332879206010e+00 3.8728056375206834e+00 1.5065143293017964e+00 0 -2 -2
87 1 1.2199936656218000e-02 4.4862347143877352e+00 1.5325963198937775e+00 -1 1 -2
291 1 8.9648598988062933e-01 4.3853440017790000e+00 1.4507848524269427e+00 0 0 1
244 2 1.6792528213997526e+00 4.3510036756022235e+00 1.1682979899549542e+00 1 0 1
11 1 2.4616965556269874e+00 4.4439137358609262e+00 1.1234101608687983e+00 0 1 -3
321 1 3.3436994072300070e+00 4.2124744465614112e+00 1.3726878094528001e+00 1 1 -2
305 1 4.1445400323268853e+00 4.3613744913891592e+00 1.2552081045599699e+00 -2 1 -1
146 2 4.8307080005036926e+00 4.5174341377638214e+00 1.1751188091243556e+00 -1 0 -1
68 2 4.7079472177304699e-01 5.0423452413779133e+00 1.0848072380797624e+00 0 0 -2
335 1 1.1298611424344434e+00 5.5096588669244042e+00 1.0187510545636396e+00 2 0 0
60 2 1.3096207919919136e+00 4.9877602699305577e+00 1.4866026386849844e+00 -2 -1 -1
380 2 1.8157387564739869e+00 4.9950799795978016e+00 8.1231663333299042e-01 -1 -2 3
90 2 2.4867662137202529e+00 5.3321349099956983e+00 1.0151734619936863e+00 -3 -2 -2
340 2 3.6911469987655532e+00 4.9730346785961341e+00 1.2299683929223331e+00 1 1 1
21 1 4.1146133814558441e+00 5.5402739062986006e+00 1.0050989312800036e+00 0 1 -1
220 2 4.5233979525849763e+00 5.1042798037249977e+00 1.5040687920012414e+00 0 -2 1
18 2 4.9157788569632270e+00 5.4851307288603746e+00 8.2094608363164245e-01 -1 -1 -2
235 1 5.2972465891567495e+00 4.8926078941905553e+00 7.8641518770752861e-01 -1 -2 -1
95 1 5.3600211420322710e+00 5.3717722088447326e+00 1.5063086372494279e+00 0 0 -1
334 2 2.1097241657717467e-01 7.8886215081496985e-02 2.1170846276979973e+00 0 -1 -1
125 1 1.0893882775427557e+00 4.8571370358777760e-02 1.9872373166645727e+00 -1 3 -1
276 2 1.8367875463827734e+00 2.9040228022390158e-01 2.0707242759653917e+00 0 0 0
419 1 3.1339273793560518e+00 7.9429823738127725e-01 1.6018590415181297e+00 -1 0 0
247 1 2.6263456784915267e+00 7.4726888045904535e-02 1.8130557031176318e+00 -1 0 -1
385 1 2.5210081587030118e+00 7.5786034517879697e-01 2.2845795960953357e+00 -3 -1 0
208 2 3.5306285070725454e+00 5.6668199460052615e-01 2.3107240111227765e+00 -1 3 1
46 2 4.6700020697991222e+00 7.4696009956120901e-01 1.9817513120952492e+00 0 0 0
185 1 5.4377855093505225e+00 7.2563389396440203e-01 1.9315742665114648e+00 -1 1 0
373 1 4.9429927675972891e+00 5.5682606095223512e+00 2.1909807201036338e+00 -1 -1 -2
382 2 7.1709959977477788e-01 7.4887153870347334e-01 2.0487215539507582e+00 -2 0 1
36 2 3.6998607731807842e-01 1.4642416650390520e+00 1.8999852227313787e+00 1 -3 0
179 1 1.5821098480792348e+00 9.9613225655307858e-01 2.1678616923477958e+00 0 -1 -1
211 1 2.1956477662663096e+00 8.6676370908971478e-01 1.6145956434990469e+00 0 -1 -1
203 1 2.2499592116773264e+00 1.6063316691065390e+00 2.1569930710430674e+00 -1 0 1
131 1 3.0485243560782718e+00 1.2245672899004871e+00 2.3231271682595267e+00 -1 0 0
386 2 4.0419048758971812e+00 1.0498211765947780e+00 1.9877233465193327e+00 -1 0 -1
379 1 4.8234201728244672e+00 1.5109827805903349e+00 1.8641575963496382e+00 -1 0 0
253 1 6.1633795652849421e-01 2.3198220903344442e+00 2.0600602807499335e+00 -1 1 -1
409 1 1.0587200162627963e+00 1.5833996267665045e+00 2.0678914453798023e+00 -1 -1 2
53 1 1.5315678186839154e+00 2.2116886456765292e+00 2.0552163515492596e+00 1 0 1
263 1 2.3211567053029292e+00 2.2228463844679744e+00 1.7271146152053469e+00 -2 1 0
116 2 3.0240511663461231e+00 2.0133788026676775e+00 2.0821026266319085e+00 -2 1 2
233 1 3.5855894031273228e+00 1.5550427239993985e+00 1.8336659628022043e+00 0 -1 1
226 2 4.6468806027182268e+00 2.3651839169037316e+00 1.7475907011965834e+00 0 -1 -1
401 1 4.1238064502299956e+00 2.0055884075701655e+00 2.3035839390789903e+00 -1 0 -1
287 1 5.4572625718559715e+00 2.0350945230469644e+00 1.8607241360852877e+00 -1 4 -1
161 1 5.4030527361938652e-01 3.1790866485323828e+00 1.9453878851613331e+00 -1 -1 1
12 2 1.1221176516332230e+00 2.7843776510902272e+00 1.6393095498137842e+00 1 1 -1
311 1 1.8030131592676317e+00 2.9492819490700972e+00 1.9436636672363186e+00 -1 0 2
33 1 3.0350751171188541e+00 2.8178491065233580e+00 1.8589364344450992e+00 -1 2 -3
72 2 2.4722118311739809e+00 2.5517262898214068e+00 2.3806032047372003e+00 1 0 -2
9 1 3.7476045011546528e+00 2.4707659582650354e+00 1.8158563683276538e+00 -2 -1 -2
123 1 3.5997298894550824e+00 3.2249681417389513e+00 2.4354267079494831e+00 -1 0 -4
250 2 4.1459023583394439e+00 3.0264786942172170e+00 2.0191805547037114e+00 2 1 0
328 2 5.3932268884842207e+00 2.7311795480630363e+00 1.9571359413922931e+00 -1 -1 1
432 2 1.1756042807370575e+00 3.6192956786204284e+00 1.5938021054366631e+00 1 3 1
42 2 1.2420178186691588e+00 3.4813991598422089e+00 2.2257185676168967e+00 -2 1 -3
361 1 1.8795927523410969e+00 3.8156632910801700e+00 2.2667045907067798e+00 -2 -1 1
191 1 2.4928536172075071e+00 3.3155246394585278e+00 1.9636273485902278e+00 -1 -1 0
312 2 3.1257952827667848e+00 3.6882595045750981e+00 2.0391344145605830e+00 0 -1 -2
214 2 3.8645003187164488e+00 3.9347444166901093e+00 2.0666940720266886e+00 -1 2 -2
393 1 4.6739892171722062e+00 3.5949790965451780e+00 2.2276833441360750e+00 -1 -1 0
14 2 5.4444845972976728e+00 3.5376138155841943e+00 1.9498641631121982e+00 -2 -1 0
289 1 6.5200676042518613e-01 4.1451354279133055e+00 2.1350210739971653e+00 -2 0 -2
397 1 1.5754226698633729e+00 4.3206633661821936e+00 1.9513518249174355e+00 -1 -1 0
112 2 2.3726313869914679e+00 4.5869865160480794e+00 2.3105146068260152e+00 0 -1 0
76 2 2.5022085072302112e+00 4.1387653259876105e+00 1.7656401716067849e+00 0 1 -1
343 1 3.2171964787121290e+00 4.3763499910832708e+00 2.2027152641052874e+00 -1 1 0
431 1 3.8244666490029768e+00 4.8031428009603001e+00 1.9781264592439434e+00 -2 -2 1
218 2 4.5627354128078244e+00 4.3463056741076862e+00 1.9571735708575944e+00 0 1 1
43 1 5.4038328171698158e+00 4.0866346930911961e+00 2.3309152779443427e+00 -2 1 -1
322 2 5.8236819107189630e-01 5.0826844526109314e+00 1.7392519948598399e+00 1 0 0
309 1 2.2281007432656830e-01 4.8827668831128577e+00 2.3910098988601098e+00 0 -1 1
154 2 1.0552943608303045e+00 4.8382262694748555e+00 2.3567504807374582e+00 -1 0 3
396 2 1.7266137351077910e+00 5.1371862234470527e+00 2.1135063839045345e+00 2 1 0
109 1 2.1661702139987855e+00 4.9444720937225748e+00 1.6559522874299255e+00 0 0 0
38 2 2.9659694229964626e+00 4.8750072293926614e+00 1.5885063253355407e+00 0 1 -1
348 2 3.3823632625488962e+00 5.5026291360787258e+00 1.8939573936032370e+00 -1 0 1
277 1 4.1536306896930704e+00 5.4984635463148024e-02 1.9702388466250718e+00 -2 0 -1
219 1 5.0661761166936481e+00 4.8105883048070108e+00 1.9866897684840952e+00 -3 1 -2
421 1 3.2641799406611549e-01 6.0666520000248114e-01 2.7306469623076501e+00 -2 0 1
367 1 1.2038985599605709e+00 5.0966410299414333e-01 2.6982172150754935e+00 -2 2 0
85 1 2.0734308102030998e+00 5.8279596758856278e-01 2.7932459932420270e+00 -1 0 0
57 1 2.9656162283370273e+00 2.5869045895584375e-01 2.6358124893202350e+00 0 0 1
145 1 4.2817045942196374e+00 4.4333727341807183e-01 2.6756695073457353e+00 -1 0 -1
389 1 5.0643254562960838e+00 6.8678533776346529e-01 2.7762961375945627e+00 0 2 0
209 1 7.8763845706686297e-01 1.2746732963361167e+00 2.7116851052184829e+00 0 0 2
398 2 1.4971124768432167e+00 1.0882705214387893e+00 3.1130712156938252e+00 -3 1 -1
144 2 2.2863479829668574e+00 1.3744979000959601e+00 2.9161580346334852e+00 1 1 1
260 2 1.6018309668003108e+00 1.5591039406919394e+00 2.6336027547241625e+00 0 2 -3
75 1 3.0264167082966638e+00 1.0622964477852144e+00 3.0557984584808344e+00 -2 -1 0
254 2 3.8327139951688398e+00 1.1117017586979272e+00 2.7709333693020821e+00 -1 3 -3
212 2 4.5267689404305802e+00 1.2851164188676469e+00 2.5712317894656271e+00 0 1 1
169 1 5.3996496803095093e+00 1.2998093435377884e+00 2.4363593004342983e+00 -3 -1 1
229 1 5.1135516200464952e+00 1.5971462059596451e+00 3.1723934875982027e+00 0 2 0
341 1 2.7863545103043524e-01 1.8088770048395313e+00 2.6400435055627098e+00 0 1 0
149 1 1.0623487650449810e+00 2.0820742381284298e+00 2.8528361668600200e+00 2 -2 1
369 1 1.9812045830938145e+00 2.2231282088838071e+00 2.7298439043745395e+00 -1 -1 -1
368 2 2.7860928778945788e+00 1.8984309545656171e+00 2.8272729633959175e+00 -1 0 -2
338 2 3.5136608518509025e+00 1.7292914185423265e+00 2.7188484183329256e+00 0 2 0
237 1 4.2476025430956845e+00 1.8705261349371114e+00 3.0908470206692988e+00 -1 0 4
22 2 4.8745304693773965e+00 1.9950479307336186e+00 2.4856051584278771e+00 2 0 -2
228 2 4.4974857717334321e-01 2.6803743366466470e+00 2.6556210770409741e+00 -2 -2 1
249 1 1.2021970217971307e+00 2.7843130475674145e+00 2.5874137815497882e+00 -1 1 1
213 1 2.1074377852813551e+00 3.1514617694866951e+00 2.7262766433772563e+00 0 2 1
168 2 3.2877264495649472e+00 2.4790513300989265e+00 2.5860009733581042e+00 1 -3 0
192 2 3.9976158326674391e+00 2.6480642311120337e+00 2.8252187551440793e+00 0 0 -2
61 1 4.6784097693767794e+00 2.7874138381608899e+00 2.3984680022239249e+00 -1 -2 -3
71 1 5.3260766057220312e+00 2.3980845868183049e+00 2.7564523932822933e+00 -1 2 -1
390 2 5.7657738423197202e-01 3.5169650706731286e+00 2.6760627088961670e+00 0 0 0
183 1 1.3861204849562532e+00 3.3935053387232381e+00 2.9946474670250991e+00 1 0 0
108 2 2.0882322714711021e+00 3.8942714272499672e+00 2.9855400653459094e+00 0 -1 -3
298 2 2.9114237087451733e+00 3.1827294872160192e+00 2.6809122274889887e+00 -1 0 0
336 2 2.6600037880827521e+00 3.9075682329608532e+00 2.5641361761008388e+00 2 1 0
89 1 3.4367825818831848e+00 3.8950841030180929e+00 2.9448102871556330e+00 0 2 -2
79 1 4.1584490679164317e+00 3.4969093239797853e+00 2.8358607958326845e+00 -1 -1 -1
278 2 5.4278778797832308e+00 3.2288288943250190e+00 2.5521772345815408e+00 0 0 0
236 2 4.8212657275299540e+00 3.2463739588316494e+00 3.0238425064640237e+00 -2 -1 0
245 1 5.5135793883191111e+00 3.6751794914517468e+00 3.1864392144848206e+00 -1 -1 0
387 1 3.3323286427173460e-01 4.2909911291381562e+00 2.9504138511564100e+00 0 2 0
268 2 1.1756580128245966e+00 4.1130294743813129e+00 2.7376273685223418e+00 -4 1 -2
137 1 1.7330962701696795e+00 4.6172132555745282e+00 2.7610983888602720e+00 0 0 -1
353 1 2.8087346622239697e+00 4.6023630620261038e+00 2.9818629033592989e+00 -1 1 -1
319 1 3.6390124692082164e+00 4.6598767991769980e+00 2.8753642941755664e+00 1 -1 -1
272 2 4.2056833634995039e+00 4.2532864079913226e+00 2.6378930718644100e+00 1 1 -1
320 2 4.8405813640989219e+00 4.0557928023824150e+00 2.8731085568637362e+00 0 0 -1
374 2 6.7670695141191239e-01 5.4697152943240770e+00 2.7416786988430566e+00 0 0 1
354 2 9.1950717216784872e-01 4.7246712167648974e+00 3.1056420514340224e+00 0 0 -1
102 2 1.5033517739746627e+00 5.4562791861952400e+00 2.7619749340697042e+00 1 0 -2
26 2 3.0691760849554193e+00 5.0761140766442301e+00 2.3770595624338418e+00 -2 -1 -2
175 1 2.3241961990413760e+00 5.3172076911842296e+00 2.5711095591577680e+00 0 -2 -1
238 2 3.7227974577845826e+00 5.4257139045186698e+00 2.6832349154051669e+00 1 -1 -1
303 1 4.3748321675810047e+00 5.0178968061282356e+00 2.5144212244049835e+00 0 0 0
242 2 4.6341582999519737e+00 5.4707530481387803e+00 3.1130237756751455e+00 -1 1 -2
333 1 5.1207173524922016e+00 4.7882330666418706e+00 2.8158067133392262e+00 0 -1 -1
170 2 5.3857210565673359e+00 5.5134965802715437e+00 2.8417962657633593e+00 0 0 0
351 1 2.3449681619104715e-01 2.6860907076187573e-01 3.4842712965943958e+00 1 1 -1
299 1 8.6073313992034450e-01 7.1732402010869389e-01 3.3540166061227334e+00 0 1 -1
295 1 1.6405059816754533e+00 3.3201251964241985e-01 3.4660457872092070e+00 -1 0 1
422 2 2.6850549832613306e+00 4.5359995463883590e-01 3.3030724570485663e+00 0 2 -1
259 1 3.5623582808481382e+00 4.3007464104404558e-01 3.2741671994359169e+00 -1 1 0
63 1 4.1995694817802836e+00 3.5853891110947034e-01 3.6235994342852456e+00 -2 2 -2
187 1 5.0942773000127612e+00 4.5376155041695615e-01 3.4808664329062404e+00 -1 2 0
15 1 1.2809752282823511e-01 1.1685755451929751e+00 3.3007762592654890e+00 -1 1 -1
6 2 1.3759912002900094e+00 9.7086811605926404e-01 3.9198569068332780e+00 0 0 -1
279 1 2.1724917715316265e+00 1.0846117516018343e+00 3.5690658564764961e+00 1 0 -1
10 2 2.9038927736920681e+00 9.3387783030696114e-01 3.8499671772829323e+00 0 -1 -1
199 1 3.7317713873244553e+00 1.3299960130951765e+00 3.5273009469519039e+00 1 -2 -4
139 1 4.4608297329398008e+00 9.8860502958068341e-01 3.3199846678240434e+00 0 1 -1
74 2 3.4648216293300932e-01 2.1390054119045194e+00 3.2882301131018576e+00 1 0 0
113 1 1.2521688440493642e-01 1.6848440205540143e+00 3.9269463339671313e+00 -1 0 0
234 2 8.8320308970419881e-01 1.5591161664078392e+00 3.5556287173053769e+00 1 0 -1
157 1 1.6212464512079927e+00 1.7593476384244204e+00 3.4589733142884223e+00 -3 -2 -2
283 1 2.3709538493074986e+00 2.0015186024537024e+00 3.5062757701587954e+00 0 1 -1
2 2 2.9713366709862852e+00 1.6456440949837523e+00 3.5875923378970085e+00 0 1 -1
158 2 3.1105380852482849e+00 2.4044690304729186e+00 3.8944954102484686e+00 -3 0 -1
196 2 3.4356896208887142e+00 2.1543551343627048e+00 3.2800659785803279e+00 -2 0 -1
307 1 4.5630416406749061e+00 1.7088388461749171e+00 3.7827877208056648e+00 0 1 1
296 2 5.2254477997983422e+00 2.2235949138518079e+00 3.6546442365599177e+00 -3 0 1
359 1 3.4317833144335930e-01 2.6090435432015839e+00 3.9512022499418515e+00 0 2 -2
160 2 6.3007076107409021e-01 3.0590860742467876e+00 3.2822796096648741e+00 -2 0 0
316 2 1.0677519279758541e+00 2.4494838495367044e+00 3.4798475357013929e+00 -2 0 0
217 1 1.7693964941007505e+00 2.6132342215865361e+00 3.2751647400517889e+00 -1 0 -2
400 2 2.3377705314231960e+00 2.6934426913041567e+00 3.9265656432677809e+00 0 0 1
413 1 2.6834003090265930e+00 2.6806730208052563e+00 3.2187882600232265e+00 -1 1 1
164 2 2.8815729594730426e+00 3.2280426623635261e+00 3.9085301848522453e+00 -2 -1 0
181 1 3.4182570764912388e+00 3.0050074899460215e+00 3.3038292716518884e+00 -1 -1 -1
70 2 4.0346897003896052e+00 2.5066397962391354e+00 3.6610770293835464e+00 0 0 -2
17 1 4.6935987458286093e+00 2.4933098236488149e+00 3.2582367911632053e+00 -1 0 -1
134 2 5.5194630658741293e+00 2.8942399606013436e+00 3.3038730379808032e+00 -2 -2 -2
337 1 5.0525176364664341e+00 3.0578388022276268e+00 3.8482164267334316e+00 1 0 -1
65 1 1.0056454194125072e-03 3.7352872104940205e+00 3.8913297653577050e+00 -1 4 -2
163 1 7.6551981804856317e-01 3.8470139058900865e+00 3.4564743924609691e+00 -1 -1 -2
264 2 1.2974817096977336e+00 3.2538932332639794e+00 3.6413476555736266e+00 1 -1 0
404 2 2.0957720178748387e+00 3.3181697419514280e+00 3.5548622468617723e+00 0 0 -1
153 1 2.8254270938863288e+00 3.7058645025102281e+00 3.3246800119838809e+00 1 0 -2
324 2 3.4739276879703236e+00 3.7007831795091706e+00 3.8475307069832079e+00 0 0 0
193 1 4.1238164175065348e+00 3.2511845870889657e+00 3.5185518566205314e+00 -1 1 -1
325 1 4.7096642239400168e+00 3.7932849518754534e+00 3.5857094322087382e+00 -1 -2 1
407 1 3.6170369653843859e-01 4.5318419997205392e+00 3.8431750532888072e+00 1 1 1
232 2 1.0902693386728222e+00 4.4341855289901462e+00 3.8355010102467331e+00 0 2 -2
424 2 1.5995150237580131e+00 4.0545782105492201e+00 3.4489024916499975e+00 0 2 -1
231 1 2.3113727590778548e+00 4.5749298640416889e+00 3.2830515212477054e+00 -2 1 -3
143 1 2.3840252566663840e+00 4.0540733367087247e+00 3.8112913740902452e+00 1 1 -1
349 1 3.2203629171172907e+00 4.5095272218055777e+00 3.6631092404616949e+00 0 1 1
255 1 3.9994905351143553e+00 4.1708123876988283e+00 3.4763313745590199e+00 0 0 0
372 2 4.4967818193085822e+00 4.6833840671602269e+00 3.2745464666865303e+00 1 0 1
180 2 4.6223387630012951e+00 4.4503645222641088e+00 4.0017250815733902e+00 2 1 -3
58 2 5.2409640501116632e+00 4.4205073053791910e+00 3.5014238615845530e+00 1 0 -2
8 2 2.5395342299043439e-01 5.0540257757014491e+00 3.2732939007174049e+00 1 0 0
310 2 9.5406086926069700e-01 5.4192991821721632e+00 3.4440234265277430e+00 0 0 0
331 1 2.3087568220520382e+00 5.4311458303437776e+00 3.2530330847069062e+00 -1 -1 0
327 1 1.5858699294285266e+00 4.9681950869317264e+00 3.3885960249615188e+00 0 1 -1
364 2 1.8229661662901739e+00 5.3746443518283833e+00 3.9502199076580675e+00 0 -1 0
117 1 2.5421335846709683e+00 4.9778364231079886e+00 3.9160621264852944e+00 0 1 -2
80 2 3.1165170072212240e+00 5.2670521053808024e+00 3.2478720297990673e+00 -2 -1 -2
28 2 3.8854198349887943e+00 5.1220950908321319e+00 3.3914720736932007e+00 0 0 -2
417 1 4.3917336247030123e+00 5.2226344087082683e+00 3.9313967181722544e+00 1 0 1
241 1 5.1445860367348839e+00 5.1873170904844894e+00 3.6984280664554547e+00 -2 -1 0
371 1 6.0907714781858346e-01 1.3912609939358878e-01 4.6251856445941320e+00 0 0 0
266 2 9.5722828247231884e-01 2.8859770677194185e-01 4.0071230035427563e+00 -3 0 0
315 1 1.5370883030847060e+00 2.2217615408723895e-01 4.5140063450014818e+00 0 0 -1
148 2 2.2149691107708120e+00 4.7610791363710797e-01 3.9734377709161981e+00 1 0 -1
135 1 2.9110875983744759e+00 1.1317590623345698e-01 3.9728945202238495e+00 -2 2 -2
110 2 2.3551267895446699e+00 7.7988758167607738e-02 4.5727983073606477e+00 0 1 -1
122 2 3.1655201011103484e+00 2.1177698808553466e-01 4.7320549683348094e+00 -1 1 -2
269 1 3.5307904711334301e+00 6.7285716149429109e-01 4.0366657333804064e+00 -1 0 -2
171 1 4.0514505231195059e+00 3.0409518731339663e-01 4.5519055422929853e+00 -1 -1 -2
256 2 4.7983946277738214e+00 2.7699832619221182e-01 4.1852383283908825e+00 1 1 -2
280 2 5.4826680525369724e+00 4.7021506732171608e-01 4.2556674121864750e+00 -1 0 -2
423 1 4.5272395559146084e-01 9.1514877772325731e-01 4.0565466328818056e+00 -1 0 1
24 2 5.5612892018961597e+00 1.2523332650500851e+00 4.6678619206166037e+00 -2 0 -1
94 2 1.1604498507543675e+00 8.1499899136618703e-01 4.6177473945617855e+00 -1 -1 -1
32 2 7.8375668595975523e-01 1.4691776592420027e+00 4.4196167230515258e+00 -1 2 -1
360 2 1.4631510034178521e+00 1.5497490364586191e+00 4.2266175393971492e+00 -1 -1 -1
288 2 1.9364422572471456e+00 9.9958049587351105e-01 4.4926650780591908e+00 0 0 -2
25 1 2.3633681001132674e+00 1.4701370681554438e+00 4.1832692047250628e+00 -1 -1 0
363 1 2.6960551139720348e+00 8.4711784211498209e-01 4.6685369582196543e+00 -2 0 1
357 1 3.2869338673262605e+00 1.5347905151301353e+00 4.3001367152872474e+00 -2 0 0
215 1 3.5978130040461460e+00 9.5220508481954080e-01 4.7046243175913105e+00 0 3 -1
262 2 4.3040862988389010e+00 1.0077389420555412e+00 4.1356998314651943e+00 -2 2 1
188 2 5.1135248008807483e+00 1.0997520306950803e+00 3.9074167771316808e+00 -1 1 -2
347 1 4.8175435179758272e+00 9.0150530456734723e-01 4.6851471317356639e+00 0 2 0
206 2 2.9789919235692991e-01 2.0193957449957280e+00 4.6188678840506281e+00 -1 2 1
166 2 9.5401916733358871e-01 2.1619762655068935e+00 4.0984749531106202e+00 0 -1 0
200 2 1.8091456826310908e+00 2.1336689336895325e+00 4.1138612523452149e+00 -1 3 -1
198 2 2.6119007443336590e+00 2.0847726952344789e+00 4.3382409523729377e+00 0 1 -1
329 1 3.8002177604010363e+00 1.9555266678865089e+00 4.0506176504693565e+00 -2 1 0
88 2 3.3485719130528047e+00 2.2240980789788409e+00 4.7089051872007373e+00 0 0 1
41 1 4.2099409943499415e+00 1.6148178717867345e+00 4.6085711841277988e+00 -2 2 -2
216 2 4.5909907246562831e+00 2.3681742863747086e+00 4.1679687865056883e+00 -1 -1 -1
399 1 5.0309748061572446e+00 1.7072202092388753e+00 4.4821688469130425e+00 1 0 -1
285 1 6.8632215857885681e-01 3.2335087985690176e+00 4.0826535401063211e+00 0 2 -1
77 1 1.2234722829762699e+00 3.0749307419181058e+00 4.6294382366090829e+00 0 -2 -1
195 1 1.5646919612791677e+00 2.8241434445815812e+00 4.0872003165642168e+00 -1 2 -4
184 2 1.9965711403768627e+00 2.6285917948716850e+00 4.6991121554987121e+00 0 1 -2
395 1 2.8224241316182694e+00 2.8649418550852661e+00 4.6181677697871564e+00 0 1 0
202 2 3.5671470423287159e+00 2.8940248529694128e+00 4.1637882258181760e+00 -1 2 -2
190 2 4.1019890569166293e+00 2.5071167025463033e+00 4.5951807691674444e+00 -3 -1 -3
96 2 4.8209568910714777e+00 2.9781681928525803e+00 4.7102320547142646e+00 1 0 -2
44 2 4.3788194647031267e+00 3.1388974790531696e+00 4.1356452049482400e+00 -1 0 -3
366 2 5.3032086119939308e+00 2.4246383313873605e+00 4.3660097723918510e+00 0 1 1
50 2 7.6218106745221703e-01 3.9544057484157453e+00 4.3267950765079579e+00 -1 1 0
267 1 1.5361866964265993e+00 3.7530578757393336e+00 4.1774253391895995e+00 -1 -1 -3
292 2 2.2314428418847907e+00 3.3755430198930623e+00 4.3231373524387982e+00 0 0 0
121 1 2.8686869700003110e+00 4.0241494793012116e+00 4.2833209578314850e+00 -1 0 -1
207 1 4.0054230715919186e+00 3.3073448127508431e+00 4.7499516300557296e+00 -1 2 0
194 2 3.3370859436787157e+00 3.4944433794270733e+00 4.6569511640965127e+00 -1 -1 -1
342 2 4.0724297070401239e+00 3.8541404076284165e+00 4.2443690600943782e+00 -1 0 -1
66 2 5.5534687404737664e+00 3.2043666656012548e+00 4.4925643664936397e+00 -2 3 -2
62 2 4.8785409658177050e+00 3.7505458793311801e+00 4.3804151452528890e+00 -2 0 0
297 1 4.8355322984529554e-02 4.0362818203979440e+00 4.6045501632403703e+00 2 -1 0
13 1 1.2722063718492485e+00 4.4524122032642115e+00 4.6781642792582208e+00 0 1 -1
326 2 1.8154976788898816e+00 4.5615162897714079e+00 4.0204913823862398e+00 0 -1 -1
69 1 2.1155106178401968e+00 4.1684959298106747e+00 4.6184750234273571e+00 -1 1 -1
103 1 3.7730800490406002e+00 4.6013036233578530e+00 4.1595890978007954e+00 -3 1 -2
35 1 5.2403102724910395e+00 4.6575770244594619e+00 4.3661009904961814e+00 0 -1 -1