LAMMPS (3 Mar 2020)
# test simulations with IPL potential

units            lj
boundary         p p p
atom_style       atomic

#lattice          bcc 2.50
#region           box block 0 1 0 1 0 1
#create_box       2 box
#create_atoms     2 box basis 1 1 basis 2 1

read_data two_init.data
  orthogonal box = (-2.78495 -2.78495 -2.78495) to (2.78495 2.78495 2.78495)
  1 by 1 by 1 MPI processor grid
  reading atoms ...
  2 atoms
  reading velocities ...
  2 velocities
  read_data CPU = 0.0061102 secs

timestep         0.002

#---------interaction-------------------
mass  * 1.0
pair_style       lj/IPL  3.0
pair_coeff       1 1 1.0 1.0 1.0 36 3.0
pair_coeff       1 2 1.0 1.2 1.0 36 3.6
pair_coeff       2 2 1.0 1.4 1.0 36 4.2
#---------interaction-------------------

neighbor         0.5 bin
neigh_modify     every 1 delay 0 check yes

thermo           1
thermo_style     custom step temp pe etotal press vol

group move id 2
1 atoms in group move

variable n loop 1000
label loop
variable d equal $n*0.00001
variable d equal 1*0.00001

displace_atoms move move $d $d $d units box
displace_atoms move move 1e-05 $d $d units box
displace_atoms move move 1e-05 1e-05 $d units box
displace_atoms move move 1e-05 1e-05 1e-05 units box
compute $n all pe/atom
compute 1 all pe/atom
dump 1 all custom 1 dump.n$n.atom id type x y z fx fy fz c_$n
dump 1 all custom 1 dump.n1.atom id type x y z fx fy fz c_$n
dump 1 all custom 1 dump.n1.atom id type x y z fx fy fz c_1
run 1
WARNING: No fixes defined, atoms won't move (../verlet.cpp:52)
Neighbor list info ...
  update every 1 steps, delay 0 steps, check yes
  max neighbors/atom: 2000, page size: 100000
  master list distance cutoff = 4.7
  ghost atom cutoff = 4.7
  binsize = 2.35, bins = 3 3 3
  1 neighbor lists, perpetual/occasional/extra = 1 0 0
  (1) pair lj/IPL, perpetual
      attributes: half, newton on
      pair build: half/bin/atomonly/newton
      stencil: half/bin/3d/newton
      bin: standard
Per MPI rank memory allocation (min/avg/max) = 4.559 | 4.559 | 4.559 Mbytes
Step Temp PotEng TotEng Press Volume 
       0            0 3.416136e+21 3.416136e+21 4.7446333e+20        172.8 
       1            0 3.416136e+21 3.416136e+21 4.7446333e+20        172.8 
Loop time of 0.0003261 on 1 procs for 1 steps with 2 atoms

Performance: 529898.813 tau/day, 3066.544 timesteps/s
0.0% CPU use with 1 MPI tasks x no OpenMP threads

MPI task timing breakdown:
Section |  min time  |  avg time  |  max time  |%varavg| %total
---------------------------------------------------------------
Pair    | 5.5e-06    | 5.5e-06    | 5.5e-06    |   0.0 |  1.69
Neigh   | 0          | 0          | 0          |   0.0 |  0.00
Comm    | 8.21e-05   | 8.21e-05   | 8.21e-05   |   0.0 | 25.18
Output  | 0.0002045  | 0.0002045  | 0.0002045  |   0.0 | 62.71
Modify  | 9.4e-06    | 9.4e-06    | 9.4e-06    |   0.0 |  2.88
Other   |            | 2.46e-05   |            |       |  7.54

Nlocal:    2 ave 2 max 2 min
Histogram: 1 0 0 0 0 0 0 0 0 0
Nghost:    52 ave 52 max 52 min
Histogram: 1 0 0 0 0 0 0 0 0 0
Neighs:    1 ave 1 max 1 min
Histogram: 1 0 0 0 0 0 0 0 0 0

Total # of neighbors = 1
Ave neighs/atom = 0.5
Neighbor list builds = 0
Dangerous builds = 0
#write_dump all custom dump.n$n.atom id type x y z fx fy fz
undump 1
next n
jump SELF loop
variable d equal $n*0.00001
variable d equal 2*0.00001

displace_atoms move move $d $d $d units box
displace_atoms move move 2e-05 $d $d units box
displace_atoms move move 2e-05 2e-05 $d units box
displace_atoms move move 2e-05 2e-05 2e-05 units box
compute $n all pe/atom
compute 2 all pe/atom
dump 1 all custom 1 dump.n$n.atom id type x y z fx fy fz c_$n
dump 1 all custom 1 dump.n2.atom id type x y z fx fy fz c_$n
dump 1 all custom 1 dump.n2.atom id type x y z fx fy fz c_2
run 1
WARNING: No fixes defined, atoms won't move (../verlet.cpp:52)
Per MPI rank memory allocation (min/avg/max) = 4.684 | 4.684 | 4.684 Mbytes
Step Temp PotEng TotEng Press Volume 
       1            0 3.4038612e+21 3.4038612e+21 4.727585e+20        172.8 
       2            0 3.4038612e+21 3.4038612e+21 4.727585e+20        172.8 
Loop time of 0.0004667 on 1 procs for 1 steps with 2 atoms

Performance: 370259.271 tau/day, 2142.704 timesteps/s
0.0% CPU use with 1 MPI tasks x no OpenMP threads

MPI task timing breakdown:
Section |  min time  |  avg time  |  max time  |%varavg| %total
---------------------------------------------------------------
Pair    | 5.3e-06    | 5.3e-06    | 5.3e-06    |   0.0 |  1.14
Neigh   | 0          | 0          | 0          |   0.0 |  0.00
Comm    | 5.9e-06    | 5.9e-06    | 5.9e-06    |   0.0 |  1.26
Output  | 0.0004309  | 0.0004309  | 0.0004309  |   0.0 | 92.33
Modify  | 4.3e-06    | 4.3e-06    | 4.3e-06    |   0.0 |  0.92
Other   |            | 2.03e-05   |            |       |  4.35

Nlocal:    2 ave 2 max 2 min
Histogram: 1 0 0 0 0 0 0 0 0 0
Nghost:    52 ave 52 max 52 min
Histogram: 1 0 0 0 0 0 0 0 0 0
Neighs:    1 ave 1 max 1 min
Histogram: 1 0 0 0 0 0 0 0 0 0

Total # of neighbors = 1
Ave neighs/atom = 0.5
Neighbor list builds = 0
Dangerous builds = 0
#write_dump all custom dump.n$n.atom id type x y z fx fy fz
undump 1
next n
jump SELF loop
variable d equal $n*0.00001
variable d equal 3*0.00001

displace_atoms move move $d $d $d units box
displace_atoms move move 3e-05 $d $d units box
displace_atoms move move 3e-05 3e-05 $d units box
displace_atoms move move 3e-05 3e-05 3e-05 units box
compute $n all pe/atom
compute 3 all pe/atom
dump 1 all custom 1 dump.n$n.atom id type x y z fx fy fz c_$n
dump 1 all custom 1 dump.n3.atom id type x y z fx fy fz c_$n
dump 1 all custom 1 dump.n3.atom id type x y z fx fy fz c_3
run 1
WARNING: No fixes defined, atoms won't move (../verlet.cpp:52)
Per MPI rank memory allocation (min/avg/max) = 4.809 | 4.809 | 4.809 Mbytes
Step Temp PotEng TotEng Press Volume 
       2            0 3.385534e+21 3.385534e+21 4.7021306e+20        172.8 
       3            0 3.385534e+21 3.385534e+21 4.7021306e+20        172.8 
Loop time of 0.0002778 on 1 procs for 1 steps with 2 atoms

Performance: 622030.242 tau/day, 3599.712 timesteps/s
0.0% CPU use with 1 MPI tasks x no OpenMP threads

MPI task timing breakdown:
Section |  min time  |  avg time  |  max time  |%varavg| %total
---------------------------------------------------------------
Pair    | 3e-06      | 3e-06      | 3e-06      |   0.0 |  1.08
Neigh   | 0          | 0          | 0          |   0.0 |  0.00
Comm    | 4.5e-06    | 4.5e-06    | 4.5e-06    |   0.0 |  1.62
Output  | 0.0002359  | 0.0002359  | 0.0002359  |   0.0 | 84.92
Modify  | 4.3e-06    | 4.3e-06    | 4.3e-06    |   0.0 |  1.55
Other   |            | 3.01e-05   |            |       | 10.84

Nlocal:    2 ave 2 max 2 min
Histogram: 1 0 0 0 0 0 0 0 0 0
Nghost:    52 ave 52 max 52 min
Histogram: 1 0 0 0 0 0 0 0 0 0
Neighs:    1 ave 1 max 1 min
Histogram: 1 0 0 0 0 0 0 0 0 0

Total # of neighbors = 1
Ave neighs/atom = 0.5
Neighbor list builds = 0
Dangerous builds = 0
#write_dump all custom dump.n$n.atom id type x y z fx fy fz
undump 1
next n
jump SELF loop
variable d equal $n*0.00001
variable d equal 4*0.00001

displace_atoms move move $d $d $d units box
displace_atoms move move 4e-05 $d $d units box
displace_atoms move move 4e-05 4e-05 $d units box
displace_atoms move move 4e-05 4e-05 4e-05 units box
compute $n all pe/atom
compute 4 all pe/atom
dump 1 all custom 1 dump.n$n.atom id type x y z fx fy fz c_$n
dump 1 all custom 1 dump.n4.atom id type x y z fx fy fz c_$n
dump 1 all custom 1 dump.n4.atom id type x y z fx fy fz c_4
run 1
WARNING: No fixes defined, atoms won't move (../verlet.cpp:52)
Per MPI rank memory allocation (min/avg/max) = 4.934 | 4.934 | 4.934 Mbytes
Step Temp PotEng TotEng Press Volume 
       3            0 3.3612554e+21 3.3612554e+21 4.6684103e+20        172.8 
       4            0 3.3612554e+21 3.3612554e+21 4.6684103e+20        172.8 
Loop time of 0.000345 on 1 procs for 1 steps with 2 atoms

Performance: 500869.565 tau/day, 2898.551 timesteps/s
0.0% CPU use with 1 MPI tasks x no OpenMP threads

MPI task timing breakdown:
Section |  min time  |  avg time  |  max time  |%varavg| %total
---------------------------------------------------------------
Pair    | 4.7e-06    | 4.7e-06    | 4.7e-06    |   0.0 |  1.36
Neigh   | 0          | 0          | 0          |   0.0 |  0.00
Comm    | 5.9e-06    | 5.9e-06    | 5.9e-06    |   0.0 |  1.71
Output  | 0.0002672  | 0.0002672  | 0.0002672  |   0.0 | 77.45
Modify  | 4.1e-06    | 4.1e-06    | 4.1e-06    |   0.0 |  1.19
Other   |            | 6.31e-05   |            |       | 18.29

Nlocal:    2 ave 2 max 2 min
Histogram: 1 0 0 0 0 0 0 0 0 0
Nghost:    52 ave 52 max 52 min
Histogram: 1 0 0 0 0 0 0 0 0 0
Neighs:    1 ave 1 max 1 min
Histogram: 1 0 0 0 0 0 0 0 0 0

Total # of neighbors = 1
Ave neighs/atom = 0.5
Neighbor list builds = 0
Dangerous builds = 0
#write_dump all custom dump.n$n.atom id type x y z fx fy fz
undump 1
next n
jump SELF loop
variable d equal $n*0.00001
variable d equal 5*0.00001

displace_atoms move move $d $d $d units box
displace_atoms move move 5e-05 $d $d units box
displace_atoms move move 5e-05 5e-05 $d units box
displace_atoms move move 5e-05 5e-05 5e-05 units box
compute $n all pe/atom
compute 5 all pe/atom
dump 1 all custom 1 dump.n$n.atom id type x y z fx fy fz c_$n
dump 1 all custom 1 dump.n5.atom id type x y z fx fy fz c_$n
dump 1 all custom 1 dump.n5.atom id type x y z fx fy fz c_5
run 1
WARNING: No fixes defined, atoms won't move (../verlet.cpp:52)
Per MPI rank memory allocation (min/avg/max) = 5.059 | 5.059 | 5.059 Mbytes
Step Temp PotEng TotEng Press Volume 
       4            0 3.3311586e+21 3.3311586e+21 4.6266091e+20        172.8 
       5            0 3.3311586e+21 3.3311586e+21 4.6266091e+20        172.8 
Loop time of 0.0002979 on 1 procs for 1 steps with 2 atoms

Performance: 580060.426 tau/day, 3356.831 timesteps/s
0.0% CPU use with 1 MPI tasks x no OpenMP threads

MPI task timing breakdown:
Section |  min time  |  avg time  |  max time  |%varavg| %total
---------------------------------------------------------------
Pair    | 5.4e-06    | 5.4e-06    | 5.4e-06    |   0.0 |  1.81
Neigh   | 0          | 0          | 0          |   0.0 |  0.00
Comm    | 6e-06      | 6e-06      | 6e-06      |   0.0 |  2.01
Output  | 0.0002643  | 0.0002643  | 0.0002643  |   0.0 | 88.72
Modify  | 4.4e-06    | 4.4e-06    | 4.4e-06    |   0.0 |  1.48
Other   |            | 1.78e-05   |            |       |  5.98

Nlocal:    2 ave 2 max 2 min
Histogram: 1 0 0 0 0 0 0 0 0 0
Nghost:    52 ave 52 max 52 min
Histogram: 1 0 0 0 0 0 0 0 0 0
Neighs:    1 ave 1 max 1 min
Histogram: 1 0 0 0 0 0 0 0 0 0

Total # of neighbors = 1
Ave neighs/atom = 0.5
Neighbor list builds = 0
Dangerous builds = 0
#write_dump all custom dump.n$n.atom id type x y z fx fy fz
undump 1
next n
jump SELF loop
variable d equal $n*0.00001
variable d equal 6*0.00001

displace_atoms move move $d $d $d units box
displace_atoms move move 6e-05 $d $d units box
displace_atoms move move 6e-05 6e-05 $d units box
displace_atoms move move 6e-05 6e-05 6e-05 units box
compute $n all pe/atom
compute 6 all pe/atom
dump 1 all custom 1 dump.n$n.atom id type x y z fx fy fz c_$n
dump 1 all custom 1 dump.n6.atom id type x y z fx fy fz c_$n
dump 1 all custom 1 dump.n6.atom id type x y z fx fy fz c_6
run 1
WARNING: No fixes defined, atoms won't move (../verlet.cpp:52)
Per MPI rank memory allocation (min/avg/max) = 5.184 | 5.184 | 5.184 Mbytes
Step Temp PotEng TotEng Press Volume 
       5            0 3.2954076e+21 3.2954076e+21 4.576955e+20        172.8 
       6            0 3.2954076e+21 3.2954076e+21 4.576955e+20        172.8 
Loop time of 0.0002163 on 1 procs for 1 steps with 2 atoms

Performance: 798890.420 tau/day, 4623.208 timesteps/s
0.0% CPU use with 1 MPI tasks x no OpenMP threads

MPI task timing breakdown:
Section |  min time  |  avg time  |  max time  |%varavg| %total
---------------------------------------------------------------
Pair    | 3.8e-06    | 3.8e-06    | 3.8e-06    |   0.0 |  1.76
Neigh   | 0          | 0          | 0          |   0.0 |  0.00
Comm    | 4.4e-06    | 4.4e-06    | 4.4e-06    |   0.0 |  2.03
Output  | 0.0001912  | 0.0001912  | 0.0001912  |   0.0 | 88.40
Modify  | 3.4e-06    | 3.4e-06    | 3.4e-06    |   0.0 |  1.57
Other   |            | 1.35e-05   |            |       |  6.24

Nlocal:    2 ave 2 max 2 min
Histogram: 1 0 0 0 0 0 0 0 0 0
Nghost:    52 ave 52 max 52 min
Histogram: 1 0 0 0 0 0 0 0 0 0
Neighs:    1 ave 1 max 1 min
Histogram: 1 0 0 0 0 0 0 0 0 0

Total # of neighbors = 1
Ave neighs/atom = 0.5
Neighbor list builds = 0
Dangerous builds = 0
#write_dump all custom dump.n$n.atom id type x y z fx fy fz
undump 1
next n
jump SELF loop
variable d equal $n*0.00001
variable d equal 7*0.00001

displace_atoms move move $d $d $d units box
displace_atoms move move 7e-05 $d $d units box
displace_atoms move move 7e-05 7e-05 $d units box
displace_atoms move move 7e-05 7e-05 7e-05 units box
compute $n all pe/atom
compute 7 all pe/atom
dump 1 all custom 1 dump.n$n.atom id type x y z fx fy fz c_$n
dump 1 all custom 1 dump.n7.atom id type x y z fx fy fz c_$n
dump 1 all custom 1 dump.n7.atom id type x y z fx fy fz c_7
run 1
WARNING: No fixes defined, atoms won't move (../verlet.cpp:52)
Per MPI rank memory allocation (min/avg/max) = 5.309 | 5.309 | 5.309 Mbytes
Step Temp PotEng TotEng Press Volume 
       6            0 3.2541961e+21 3.2541961e+21 4.5197169e+20        172.8 
       7            0 3.2541961e+21 3.2541961e+21 4.5197169e+20        172.8 
Loop time of 0.0005433 on 1 procs for 1 steps with 2 atoms

Performance: 318056.324 tau/day, 1840.604 timesteps/s
0.0% CPU use with 1 MPI tasks x no OpenMP threads

MPI task timing breakdown:
Section |  min time  |  avg time  |  max time  |%varavg| %total
---------------------------------------------------------------
Pair    | 3.9e-06    | 3.9e-06    | 3.9e-06    |   0.0 |  0.72
Neigh   | 0          | 0          | 0          |   0.0 |  0.00
Comm    | 4.7e-06    | 4.7e-06    | 4.7e-06    |   0.0 |  0.87
Output  | 0.0005175  | 0.0005175  | 0.0005175  |   0.0 | 95.25
Modify  | 3.4e-06    | 3.4e-06    | 3.4e-06    |   0.0 |  0.63
Other   |            | 1.38e-05   |            |       |  2.54

Nlocal:    2 ave 2 max 2 min
Histogram: 1 0 0 0 0 0 0 0 0 0
Nghost:    52 ave 52 max 52 min
Histogram: 1 0 0 0 0 0 0 0 0 0
Neighs:    1 ave 1 max 1 min
Histogram: 1 0 0 0 0 0 0 0 0 0

Total # of neighbors = 1
Ave neighs/atom = 0.5
Neighbor list builds = 0
Dangerous builds = 0
#write_dump all custom dump.n$n.atom id type x y z fx fy fz
undump 1
next n
jump SELF loop
variable d equal $n*0.00001
variable d equal 8*0.00001

displace_atoms move move $d $d $d units box
displace_atoms move move 8e-05 $d $d units box
displace_atoms move move 8e-05 8e-05 $d units box
displace_atoms move move 8e-05 8e-05 8e-05 units box
compute $n all pe/atom
compute 8 all pe/atom
dump 1 all custom 1 dump.n$n.atom id type x y z fx fy fz c_$n
dump 1 all custom 1 dump.n8.atom id type x y z fx fy fz c_$n
dump 1 all custom 1 dump.n8.atom id type x y z fx fy fz c_8
run 1
WARNING: No fixes defined, atoms won't move (../verlet.cpp:52)
Per MPI rank memory allocation (min/avg/max) = 5.434 | 5.434 | 5.434 Mbytes
Step Temp PotEng TotEng Press Volume 
       7            0 3.2077453e+21 3.2077453e+21 4.4552018e+20        172.8 
       8            0 3.2077453e+21 3.2077453e+21 4.4552018e+20        172.8 
Loop time of 0.0002228 on 1 procs for 1 steps with 2 atoms

Performance: 775583.479 tau/day, 4488.330 timesteps/s
0.0% CPU use with 1 MPI tasks x no OpenMP threads

MPI task timing breakdown:
Section |  min time  |  avg time  |  max time  |%varavg| %total
---------------------------------------------------------------
Pair    | 3.6e-06    | 3.6e-06    | 3.6e-06    |   0.0 |  1.62
Neigh   | 0          | 0          | 0          |   0.0 |  0.00
Comm    | 4.8e-06    | 4.8e-06    | 4.8e-06    |   0.0 |  2.15
Output  | 0.0001976  | 0.0001976  | 0.0001976  |   0.0 | 88.69
Modify  | 3.6e-06    | 3.6e-06    | 3.6e-06    |   0.0 |  1.62
Other   |            | 1.32e-05   |            |       |  5.92

Nlocal:    2 ave 2 max 2 min
Histogram: 1 0 0 0 0 0 0 0 0 0
Nghost:    52 ave 52 max 52 min
Histogram: 1 0 0 0 0 0 0 0 0 0
Neighs:    1 ave 1 max 1 min
Histogram: 1 0 0 0 0 0 0 0 0 0

Total # of neighbors = 1
Ave neighs/atom = 0.5
Neighbor list builds = 0
Dangerous builds = 0
#write_dump all custom dump.n$n.atom id type x y z fx fy fz
undump 1
next n
jump SELF loop
variable d equal $n*0.00001
variable d equal 9*0.00001

displace_atoms move move $d $d $d units box
displace_atoms move move 9e-05 $d $d units box
displace_atoms move move 9e-05 9e-05 $d units box
displace_atoms move move 9e-05 9e-05 9e-05 units box
compute $n all pe/atom
compute 9 all pe/atom
dump 1 all custom 1 dump.n$n.atom id type x y z fx fy fz c_$n
dump 1 all custom 1 dump.n9.atom id type x y z fx fy fz c_$n
dump 1 all custom 1 dump.n9.atom id type x y z fx fy fz c_9
run 1
WARNING: No fixes defined, atoms won't move (../verlet.cpp:52)
Per MPI rank memory allocation (min/avg/max) = 5.559 | 5.559 | 5.559 Mbytes
Step Temp PotEng TotEng Press Volume 
       8            0 3.1563018e+21 3.1563018e+21 4.3837525e+20        172.8 
       9            0 3.1563018e+21 3.1563018e+21 4.3837525e+20        172.8 
Loop time of 0.0003103 on 1 procs for 1 steps with 2 atoms

Performance: 556880.442 tau/day, 3222.688 timesteps/s
0.0% CPU use with 1 MPI tasks x no OpenMP threads

MPI task timing breakdown:
Section |  min time  |  avg time  |  max time  |%varavg| %total
---------------------------------------------------------------
Pair    | 3.2e-06    | 3.2e-06    | 3.2e-06    |   0.0 |  1.03
Neigh   | 0          | 0          | 0          |   0.0 |  0.00
Comm    | 4.6e-06    | 4.6e-06    | 4.6e-06    |   0.0 |  1.48
Output  | 0.0002851  | 0.0002851  | 0.0002851  |   0.0 | 91.88
Modify  | 3.6e-06    | 3.6e-06    | 3.6e-06    |   0.0 |  1.16
Other   |            | 1.38e-05   |            |       |  4.45

Nlocal:    2 ave 2 max 2 min
Histogram: 1 0 0 0 0 0 0 0 0 0
Nghost:    52 ave 52 max 52 min
Histogram: 1 0 0 0 0 0 0 0 0 0
Neighs:    1 ave 1 max 1 min
Histogram: 1 0 0 0 0 0 0 0 0 0

Total # of neighbors = 1
Ave neighs/atom = 0.5
Neighbor list builds = 0
Dangerous builds = 0
#write_dump all custom dump.n$n.atom id type x y z fx fy fz
undump 1
next n
jump SELF loop
variable d equal $n*0.00001
variable d equal 10*0.00001

displace_atoms move move $d $d $d units box
displace_atoms move move 0.0001 $d $d units box
displace_atoms move move 0.0001 0.0001 $d units box
displace_atoms move move 0.0001 0.0001 0.0001 units box
compute $n all pe/atom
compute 10 all pe/atom
dump 1 all custom 1 dump.n$n.atom id type x y z fx fy fz c_$n
dump 1 all custom 1 dump.n10.atom id type x y z fx fy fz c_$n
dump 1 all custom 1 dump.n10.atom id type x y z fx fy fz c_10
run 1
WARNING: No fixes defined, atoms won't move (../verlet.cpp:52)
Per MPI rank memory allocation (min/avg/max) = 5.684 | 5.684 | 5.684 Mbytes
Step Temp PotEng TotEng Press Volume 
       9            0 3.1001358e+21 3.1001358e+21 4.3057441e+20        172.8 
      10            0 3.1001358e+21 3.1001358e+21 4.3057441e+20        172.8 
Loop time of 0.0002758 on 1 procs for 1 steps with 2 atoms

Performance: 626540.978 tau/day, 3625.816 timesteps/s
0.0% CPU use with 1 MPI tasks x no OpenMP threads

MPI task timing breakdown:
Section |  min time  |  avg time  |  max time  |%varavg| %total
---------------------------------------------------------------
Pair    | 4.1e-06    | 4.1e-06    | 4.1e-06    |   0.0 |  1.49
Neigh   | 0          | 0          | 0          |   0.0 |  0.00
Comm    | 4.6e-06    | 4.6e-06    | 4.6e-06    |   0.0 |  1.67
Output  | 0.0002499  | 0.0002499  | 0.0002499  |   0.0 | 90.61
Modify  | 3.4e-06    | 3.4e-06    | 3.4e-06    |   0.0 |  1.23
Other   |            | 1.38e-05   |            |       |  5.00

Nlocal:    2 ave 2 max 2 min
Histogram: 1 0 0 0 0 0 0 0 0 0
Nghost:    52 ave 52 max 52 min
Histogram: 1 0 0 0 0 0 0 0 0 0
Neighs:    1 ave 1 max 1 min
Histogram: 1 0 0 0 0 0 0 0 0 0

Total # of neighbors = 1
Ave neighs/atom = 0.5
Neighbor list builds = 0
Dangerous builds = 0
#write_dump all custom dump.n$n.atom id type x y z fx fy fz
undump 1
next n
jump SELF loop
variable d equal $n*0.00001
variable d equal 11*0.00001

displace_atoms move move $d $d $d units box
displace_atoms move move 0.00011 $d $d units box
displace_atoms move move 0.00011 0.00011 $d units box
displace_atoms move move 0.00011 0.00011 0.00011 units box
compute $n all pe/atom
compute 11 all pe/atom
dump 1 all custom 1 dump.n$n.atom id type x y z fx fy fz c_$n
dump 1 all custom 1 dump.n11.atom id type x y z fx fy fz c_$n
dump 1 all custom 1 dump.n11.atom id type x y z fx fy fz c_11
run 1
WARNING: No fixes defined, atoms won't move (../verlet.cpp:52)
Per MPI rank memory allocation (min/avg/max) = 5.809 | 5.809 | 5.809 Mbytes
Step Temp PotEng TotEng Press Volume 
      10            0 3.0395383e+21 3.0395383e+21 4.221581e+20        172.8 
      11            0 3.0395383e+21 3.0395383e+21 4.221581e+20        172.8 
Loop time of 0.000483 on 1 procs for 1 steps with 2 atoms

Performance: 357763.973 tau/day, 2070.393 timesteps/s
0.0% CPU use with 1 MPI tasks x no OpenMP threads

MPI task timing breakdown:
Section |  min time  |  avg time  |  max time  |%varavg| %total
---------------------------------------------------------------
Pair    | 3.4e-06    | 3.4e-06    | 3.4e-06    |   0.0 |  0.70
Neigh   | 0          | 0          | 0          |   0.0 |  0.00
Comm    | 4.6e-06    | 4.6e-06    | 4.6e-06    |   0.0 |  0.95
Output  | 0.0004583  | 0.0004583  | 0.0004583  |   0.0 | 94.89
Modify  | 3.4e-06    | 3.4e-06    | 3.4e-06    |   0.0 |  0.70
Other   |            | 1.33e-05   |            |       |  2.75

Nlocal:    2 ave 2 max 2 min
Histogram: 1 0 0 0 0 0 0 0 0 0
Nghost:    52 ave 52 max 52 min
Histogram: 1 0 0 0 0 0 0 0 0 0
Neighs:    1 ave 1 max 1 min
Histogram: 1 0 0 0 0 0 0 0 0 0

Total # of neighbors = 1
Ave neighs/atom = 0.5
Neighbor list builds = 0
Dangerous builds = 0
#write_dump all custom dump.n$n.atom id type x y z fx fy fz
undump 1
next n
jump SELF loop
variable d equal $n*0.00001
variable d equal 12*0.00001

displace_atoms move move $d $d $d units box
displace_atoms move move 0.00012 $d $d units box
displace_atoms move move 0.00012 0.00012 $d units box
displace_atoms move move 0.00012 0.00012 0.00012 units box
compute $n all pe/atom
compute 12 all pe/atom
dump 1 all custom 1 dump.n$n.atom id type x y z fx fy fz c_$n
dump 1 all custom 1 dump.n12.atom id type x y z fx fy fz c_$n
dump 1 all custom 1 dump.n12.atom id type x y z fx fy fz c_12
run 1
WARNING: No fixes defined, atoms won't move (../verlet.cpp:52)
Per MPI rank memory allocation (min/avg/max) = 5.934 | 5.934 | 5.934 Mbytes
Step Temp PotEng TotEng Press Volume 
      11            0 2.9748187e+21 2.9748187e+21 4.1316927e+20        172.8 
      12            0 2.9748187e+21 2.9748187e+21 4.1316927e+20        172.8 
Loop time of 0.0007107 on 1 procs for 1 steps with 2 atoms

Performance: 243140.566 tau/day, 1407.063 timesteps/s
0.0% CPU use with 1 MPI tasks x no OpenMP threads

MPI task timing breakdown:
Section |  min time  |  avg time  |  max time  |%varavg| %total
---------------------------------------------------------------
Pair    | 3.2e-06    | 3.2e-06    | 3.2e-06    |   0.0 |  0.45
Neigh   | 0          | 0          | 0          |   0.0 |  0.00
Comm    | 4.3e-06    | 4.3e-06    | 4.3e-06    |   0.0 |  0.61
Output  | 0.0006857  | 0.0006857  | 0.0006857  |   0.0 | 96.48
Modify  | 3.5e-06    | 3.5e-06    | 3.5e-06    |   0.0 |  0.49
Other   |            | 1.4e-05    |            |       |  1.97

Nlocal:    2 ave 2 max 2 min
Histogram: 1 0 0 0 0 0 0 0 0 0
Nghost:    52 ave 52 max 52 min
Histogram: 1 0 0 0 0 0 0 0 0 0
Neighs:    1 ave 1 max 1 min
Histogram: 1 0 0 0 0 0 0 0 0 0

Total # of neighbors = 1
Ave neighs/atom = 0.5
Neighbor list builds = 0
Dangerous builds = 0
#write_dump all custom dump.n$n.atom id type x y z fx fy fz
undump 1
next n
jump SELF loop
variable d equal $n*0.00001
variable d equal 13*0.00001

displace_atoms move move $d $d $d units box
displace_atoms move move 0.00013 $d $d units box
displace_atoms move move 0.00013 0.00013 $d units box
displace_atoms move move 0.00013 0.00013 0.00013 units box
compute $n all pe/atom
compute 13 all pe/atom
dump 1 all custom 1 dump.n$n.atom id type x y z fx fy fz c_$n
dump 1 all custom 1 dump.n13.atom id type x y z fx fy fz c_$n
dump 1 all custom 1 dump.n13.atom id type x y z fx fy fz c_13
run 1
WARNING: No fixes defined, atoms won't move (../verlet.cpp:52)
Per MPI rank memory allocation (min/avg/max) = 6.059 | 6.059 | 6.059 Mbytes
Step Temp PotEng TotEng Press Volume 
      12            0 2.9063022e+21 2.9063022e+21 4.0365308e+20        172.8 
      13            0 2.9063022e+21 2.9063022e+21 4.0365308e+20        172.8 
Loop time of 0.0006218 on 1 procs for 1 steps with 2 atoms

Performance: 277902.864 tau/day, 1608.234 timesteps/s
0.0% CPU use with 1 MPI tasks x no OpenMP threads

MPI task timing breakdown:
Section |  min time  |  avg time  |  max time  |%varavg| %total
---------------------------------------------------------------
Pair    | 4.2e-06    | 4.2e-06    | 4.2e-06    |   0.0 |  0.68
Neigh   | 0          | 0          | 0          |   0.0 |  0.00
Comm    | 4.8e-06    | 4.8e-06    | 4.8e-06    |   0.0 |  0.77
Output  | 0.0005767  | 0.0005767  | 0.0005767  |   0.0 | 92.75
Modify  | 3.5e-06    | 3.5e-06    | 3.5e-06    |   0.0 |  0.56
Other   |            | 3.26e-05   |            |       |  5.24

Nlocal:    2 ave 2 max 2 min
Histogram: 1 0 0 0 0 0 0 0 0 0
Nghost:    52 ave 52 max 52 min
Histogram: 1 0 0 0 0 0 0 0 0 0
Neighs:    1 ave 1 max 1 min
Histogram: 1 0 0 0 0 0 0 0 0 0

Total # of neighbors = 1
Ave neighs/atom = 0.5
Neighbor list builds = 0
Dangerous builds = 0
#write_dump all custom dump.n$n.atom id type x y z fx fy fz
undump 1
next n
jump SELF loop
variable d equal $n*0.00001
variable d equal 14*0.00001

displace_atoms move move $d $d $d units box
displace_atoms move move 0.00014 $d $d units box
displace_atoms move move 0.00014 0.00014 $d units box
displace_atoms move move 0.00014 0.00014 0.00014 units box
compute $n all pe/atom
compute 14 all pe/atom
dump 1 all custom 1 dump.n$n.atom id type x y z fx fy fz c_$n
dump 1 all custom 1 dump.n14.atom id type x y z fx fy fz c_$n
dump 1 all custom 1 dump.n14.atom id type x y z fx fy fz c_14
run 1
WARNING: No fixes defined, atoms won't move (../verlet.cpp:52)
Per MPI rank memory allocation (min/avg/max) = 6.184 | 6.184 | 6.184 Mbytes
Step Temp PotEng TotEng Press Volume 
      13            0 2.8343268e+21 2.8343268e+21 3.9365649e+20        172.8 
      14            0 2.8343268e+21 2.8343268e+21 3.9365649e+20        172.8 
Loop time of 0.0003283 on 1 procs for 1 steps with 2 atoms

Performance: 526347.846 tau/day, 3045.994 timesteps/s
0.0% CPU use with 1 MPI tasks x no OpenMP threads

MPI task timing breakdown:
Section |  min time  |  avg time  |  max time  |%varavg| %total
---------------------------------------------------------------
Pair    | 4.1e-06    | 4.1e-06    | 4.1e-06    |   0.0 |  1.25
Neigh   | 0          | 0          | 0          |   0.0 |  0.00
Comm    | 5.3e-06    | 5.3e-06    | 5.3e-06    |   0.0 |  1.61
Output  | 0.0002993  | 0.0002993  | 0.0002993  |   0.0 | 91.17
Modify  | 4.2e-06    | 4.2e-06    | 4.2e-06    |   0.0 |  1.28
Other   |            | 1.54e-05   |            |       |  4.69

Nlocal:    2 ave 2 max 2 min
Histogram: 1 0 0 0 0 0 0 0 0 0
Nghost:    52 ave 52 max 52 min
Histogram: 1 0 0 0 0 0 0 0 0 0
Neighs:    1 ave 1 max 1 min
Histogram: 1 0 0 0 0 0 0 0 0 0

Total # of neighbors = 1
Ave neighs/atom = 0.5
Neighbor list builds = 0
Dangerous builds = 0
#write_dump all custom dump.n$n.atom id type x y z fx fy fz
undump 1
next n
jump SELF loop
variable d equal $n*0.00001
variable d equal 15*0.00001

displace_atoms move move $d $d $d units box
displace_atoms move move 0.00015 $d $d units box
displace_atoms move move 0.00015 0.00015 $d units box
displace_atoms move move 0.00015 0.00015 0.00015 units box
compute $n all pe/atom
compute 15 all pe/atom
dump 1 all custom 1 dump.n$n.atom id type x y z fx fy fz c_$n
dump 1 all custom 1 dump.n15.atom id type x y z fx fy fz c_$n
dump 1 all custom 1 dump.n15.atom id type x y z fx fy fz c_15
run 1
WARNING: No fixes defined, atoms won't move (../verlet.cpp:52)
Per MPI rank memory allocation (min/avg/max) = 6.309 | 6.309 | 6.309 Mbytes
Step Temp PotEng TotEng Press Volume 
      14            0 2.7592405e+21 2.7592405e+21 3.8322785e+20        172.8 
      15            0 2.7592405e+21 2.7592405e+21 3.8322785e+20        172.8 
Loop time of 0.000394 on 1 procs for 1 steps with 2 atoms

Performance: 438578.678 tau/day, 2538.071 timesteps/s
0.0% CPU use with 1 MPI tasks x no OpenMP threads

MPI task timing breakdown:
Section |  min time  |  avg time  |  max time  |%varavg| %total
---------------------------------------------------------------
Pair    | 3.6e-06    | 3.6e-06    | 3.6e-06    |   0.0 |  0.91
Neigh   | 0          | 0          | 0          |   0.0 |  0.00
Comm    | 4.3e-06    | 4.3e-06    | 4.3e-06    |   0.0 |  1.09
Output  | 0.0003695  | 0.0003695  | 0.0003695  |   0.0 | 93.78
Modify  | 3.5e-06    | 3.5e-06    | 3.5e-06    |   0.0 |  0.89
Other   |            | 1.31e-05   |            |       |  3.32

Nlocal:    2 ave 2 max 2 min
Histogram: 1 0 0 0 0 0 0 0 0 0
Nghost:    52 ave 52 max 52 min
Histogram: 1 0 0 0 0 0 0 0 0 0
Neighs:    1 ave 1 max 1 min
Histogram: 1 0 0 0 0 0 0 0 0 0

Total # of neighbors = 1
Ave neighs/atom = 0.5
Neighbor list builds = 0
Dangerous builds = 0
#write_dump all custom dump.n$n.atom id type x y z fx fy fz
undump 1
next n
jump SELF loop
variable d equal $n*0.00001
variable d equal 16*0.00001

displace_atoms move move $d $d $d units box
displace_atoms move move 0.00016 $d $d units box
displace_atoms move move 0.00016 0.00016 $d units box
displace_atoms move move 0.00016 0.00016 0.00016 units box
compute $n all pe/atom
compute 16 all pe/atom
dump 1 all custom 1 dump.n$n.atom id type x y z fx fy fz c_$n
dump 1 all custom 1 dump.n16.atom id type x y z fx fy fz c_$n
dump 1 all custom 1 dump.n16.atom id type x y z fx fy fz c_16
run 1
WARNING: No fixes defined, atoms won't move (../verlet.cpp:52)
Per MPI rank memory allocation (min/avg/max) = 6.434 | 6.434 | 6.434 Mbytes
Step Temp PotEng TotEng Press Volume 
      15            0 2.6813988e+21 2.6813988e+21 3.724165e+20        172.8 
      16            0 2.6813988e+21 2.6813988e+21 3.724165e+20        172.8 
Loop time of 0.0002885 on 1 procs for 1 steps with 2 atoms

Performance: 598960.140 tau/day, 3466.205 timesteps/s
0.0% CPU use with 1 MPI tasks x no OpenMP threads

MPI task timing breakdown:
Section |  min time  |  avg time  |  max time  |%varavg| %total
---------------------------------------------------------------
Pair    | 5.4e-06    | 5.4e-06    | 5.4e-06    |   0.0 |  1.87
Neigh   | 0          | 0          | 0          |   0.0 |  0.00
Comm    | 6.4e-06    | 6.4e-06    | 6.4e-06    |   0.0 |  2.22
Output  | 0.0002538  | 0.0002538  | 0.0002538  |   0.0 | 87.97
Modify  | 4.2e-06    | 4.2e-06    | 4.2e-06    |   0.0 |  1.46
Other   |            | 1.87e-05   |            |       |  6.48

Nlocal:    2 ave 2 max 2 min
Histogram: 1 0 0 0 0 0 0 0 0 0
Nghost:    52 ave 52 max 52 min
Histogram: 1 0 0 0 0 0 0 0 0 0
Neighs:    1 ave 1 max 1 min
Histogram: 1 0 0 0 0 0 0 0 0 0

Total # of neighbors = 1
Ave neighs/atom = 0.5
Neighbor list builds = 0
Dangerous builds = 0
#write_dump all custom dump.n$n.atom id type x y z fx fy fz
undump 1
next n
jump SELF loop
variable d equal $n*0.00001
variable d equal 17*0.00001

displace_atoms move move $d $d $d units box
displace_atoms move move 0.00017 $d $d units box
displace_atoms move move 0.00017 0.00017 $d units box
displace_atoms move move 0.00017 0.00017 0.00017 units box
compute $n all pe/atom
compute 17 all pe/atom
dump 1 all custom 1 dump.n$n.atom id type x y z fx fy fz c_$n
dump 1 all custom 1 dump.n17.atom id type x y z fx fy fz c_$n
dump 1 all custom 1 dump.n17.atom id type x y z fx fy fz c_17
run 1
WARNING: No fixes defined, atoms won't move (../verlet.cpp:52)
Per MPI rank memory allocation (min/avg/max) = 6.559 | 6.559 | 6.559 Mbytes
Step Temp PotEng TotEng Press Volume 
      16            0 2.6011616e+21 2.6011616e+21 3.6127244e+20        172.8 
      17            0 2.6011616e+21 2.6011616e+21 3.6127244e+20        172.8 
Loop time of 0.0003833 on 1 procs for 1 steps with 2 atoms

Performance: 450821.809 tau/day, 2608.923 timesteps/s
0.0% CPU use with 1 MPI tasks x no OpenMP threads

MPI task timing breakdown:
Section |  min time  |  avg time  |  max time  |%varavg| %total
---------------------------------------------------------------
Pair    | 5.2e-06    | 5.2e-06    | 5.2e-06    |   0.0 |  1.36
Neigh   | 0          | 0          | 0          |   0.0 |  0.00
Comm    | 6.2e-06    | 6.2e-06    | 6.2e-06    |   0.0 |  1.62
Output  | 0.00035    | 0.00035    | 0.00035    |   0.0 | 91.31
Modify  | 4e-06      | 4e-06      | 4e-06      |   0.0 |  1.04
Other   |            | 1.79e-05   |            |       |  4.67

Nlocal:    2 ave 2 max 2 min
Histogram: 1 0 0 0 0 0 0 0 0 0
Nghost:    52 ave 52 max 52 min
Histogram: 1 0 0 0 0 0 0 0 0 0
Neighs:    1 ave 1 max 1 min
Histogram: 1 0 0 0 0 0 0 0 0 0

Total # of neighbors = 1
Ave neighs/atom = 0.5
Neighbor list builds = 0
Dangerous builds = 0
#write_dump all custom dump.n$n.atom id type x y z fx fy fz
undump 1
next n
jump SELF loop
variable d equal $n*0.00001
variable d equal 18*0.00001

displace_atoms move move $d $d $d units box
displace_atoms move move 0.00018 $d $d units box
displace_atoms move move 0.00018 0.00018 $d units box
displace_atoms move move 0.00018 0.00018 0.00018 units box
compute $n all pe/atom
compute 18 all pe/atom
dump 1 all custom 1 dump.n$n.atom id type x y z fx fy fz c_$n
dump 1 all custom 1 dump.n18.atom id type x y z fx fy fz c_$n
dump 1 all custom 1 dump.n18.atom id type x y z fx fy fz c_18
run 1
WARNING: No fixes defined, atoms won't move (../verlet.cpp:52)
Per MPI rank memory allocation (min/avg/max) = 6.684 | 6.684 | 6.684 Mbytes
Step Temp PotEng TotEng Press Volume 
      17            0 2.5188903e+21 2.5188903e+21 3.4984587e+20        172.8 
      18            0 2.5188903e+21 2.5188903e+21 3.4984587e+20        172.8 
Loop time of 0.0002771 on 1 procs for 1 steps with 2 atoms

Performance: 623601.588 tau/day, 3608.805 timesteps/s
0.0% CPU use with 1 MPI tasks x no OpenMP threads

MPI task timing breakdown:
Section |  min time  |  avg time  |  max time  |%varavg| %total
---------------------------------------------------------------
Pair    | 3.3e-06    | 3.3e-06    | 3.3e-06    |   0.0 |  1.19
Neigh   | 0          | 0          | 0          |   0.0 |  0.00
Comm    | 5.1e-06    | 5.1e-06    | 5.1e-06    |   0.0 |  1.84
Output  | 0.0002352  | 0.0002352  | 0.0002352  |   0.0 | 84.88
Modify  | 3.8e-06    | 3.8e-06    | 3.8e-06    |   0.0 |  1.37
Other   |            | 2.97e-05   |            |       | 10.72

Nlocal:    2 ave 2 max 2 min
Histogram: 1 0 0 0 0 0 0 0 0 0
Nghost:    52 ave 52 max 52 min
Histogram: 1 0 0 0 0 0 0 0 0 0
Neighs:    1 ave 1 max 1 min
Histogram: 1 0 0 0 0 0 0 0 0 0

Total # of neighbors = 1
Ave neighs/atom = 0.5
Neighbor list builds = 0
Dangerous builds = 0
#write_dump all custom dump.n$n.atom id type x y z fx fy fz
undump 1
next n
jump SELF loop
variable d equal $n*0.00001
variable d equal 19*0.00001

displace_atoms move move $d $d $d units box
displace_atoms move move 0.00019 $d $d units box
displace_atoms move move 0.00019 0.00019 $d units box
displace_atoms move move 0.00019 0.00019 0.00019 units box
compute $n all pe/atom
compute 19 all pe/atom
dump 1 all custom 1 dump.n$n.atom id type x y z fx fy fz c_$n
dump 1 all custom 1 dump.n19.atom id type x y z fx fy fz c_$n
dump 1 all custom 1 dump.n19.atom id type x y z fx fy fz c_19
run 1
WARNING: No fixes defined, atoms won't move (../verlet.cpp:52)
Per MPI rank memory allocation (min/avg/max) = 6.809 | 6.809 | 6.809 Mbytes
Step Temp PotEng TotEng Press Volume 
      18            0 2.4349454e+21 2.4349454e+21 3.3818686e+20        172.8 
      19            0 2.4349454e+21 2.4349454e+21 3.3818686e+20        172.8 
Loop time of 0.0003033 on 1 procs for 1 steps with 2 atoms

Performance: 569732.932 tau/day, 3297.066 timesteps/s
0.0% CPU use with 1 MPI tasks x no OpenMP threads

MPI task timing breakdown:
Section |  min time  |  avg time  |  max time  |%varavg| %total
---------------------------------------------------------------
Pair    | 3.4e-06    | 3.4e-06    | 3.4e-06    |   0.0 |  1.12
Neigh   | 0          | 0          | 0          |   0.0 |  0.00
Comm    | 4.7e-06    | 4.7e-06    | 4.7e-06    |   0.0 |  1.55
Output  | 0.0002766  | 0.0002766  | 0.0002766  |   0.0 | 91.20
Modify  | 4e-06      | 4e-06      | 4e-06      |   0.0 |  1.32
Other   |            | 1.46e-05   |            |       |  4.81

Nlocal:    2 ave 2 max 2 min
Histogram: 1 0 0 0 0 0 0 0 0 0
Nghost:    52 ave 52 max 52 min
Histogram: 1 0 0 0 0 0 0 0 0 0
Neighs:    1 ave 1 max 1 min
Histogram: 1 0 0 0 0 0 0 0 0 0

Total # of neighbors = 1
Ave neighs/atom = 0.5
Neighbor list builds = 0
Dangerous builds = 0
#write_dump all custom dump.n$n.atom id type x y z fx fy fz
undump 1
next n
jump SELF loop
variable d equal $n*0.00001
variable d equal 20*0.00001

displace_atoms move move $d $d $d units box
displace_atoms move move 0.0002 $d $d units box
displace_atoms move move 0.0002 0.0002 $d units box
displace_atoms move move 0.0002 0.0002 0.0002 units box
compute $n all pe/atom
compute 20 all pe/atom
dump 1 all custom 1 dump.n$n.atom id type x y z fx fy fz c_$n
dump 1 all custom 1 dump.n20.atom id type x y z fx fy fz c_$n
dump 1 all custom 1 dump.n20.atom id type x y z fx fy fz c_20
run 1
WARNING: No fixes defined, atoms won't move (../verlet.cpp:52)
Per MPI rank memory allocation (min/avg/max) = 6.934 | 6.934 | 6.934 Mbytes
Step Temp PotEng TotEng Press Volume 
      19            0 2.3496838e+21 2.3496838e+21 3.2634497e+20        172.8 
      20            0 2.3496838e+21 2.3496838e+21 3.2634497e+20        172.8 
Loop time of 0.0002425 on 1 procs for 1 steps with 2 atoms

Performance: 712577.324 tau/day, 4123.711 timesteps/s
0.0% CPU use with 1 MPI tasks x no OpenMP threads

MPI task timing breakdown:
Section |  min time  |  avg time  |  max time  |%varavg| %total
---------------------------------------------------------------
Pair    | 3.5e-06    | 3.5e-06    | 3.5e-06    |   0.0 |  1.44
Neigh   | 0          | 0          | 0          |   0.0 |  0.00
Comm    | 4.5e-06    | 4.5e-06    | 4.5e-06    |   0.0 |  1.86
Output  | 0.0002181  | 0.0002181  | 0.0002181  |   0.0 | 89.94
Modify  | 3.4e-06    | 3.4e-06    | 3.4e-06    |   0.0 |  1.40
Other   |            | 1.3e-05    |            |       |  5.36

Nlocal:    2 ave 2 max 2 min
Histogram: 1 0 0 0 0 0 0 0 0 0
Nghost:    52 ave 52 max 52 min
Histogram: 1 0 0 0 0 0 0 0 0 0
Neighs:    1 ave 1 max 1 min
Histogram: 1 0 0 0 0 0 0 0 0 0

Total # of neighbors = 1
Ave neighs/atom = 0.5
Neighbor list builds = 0
Dangerous builds = 0
#write_dump all custom dump.n$n.atom id type x y z fx fy fz
undump 1
next n
jump SELF loop
variable d equal $n*0.00001
variable d equal 21*0.00001

displace_atoms move move $d $d $d units box
displace_atoms move move 0.00021 $d $d units box
displace_atoms move move 0.00021 0.00021 $d units box
displace_atoms move move 0.00021 0.00021 0.00021 units box
compute $n all pe/atom
compute 21 all pe/atom
dump 1 all custom 1 dump.n$n.atom id type x y z fx fy fz c_$n
dump 1 all custom 1 dump.n21.atom id type x y z fx fy fz c_$n
dump 1 all custom 1 dump.n21.atom id type x y z fx fy fz c_21
run 1
WARNING: No fixes defined, atoms won't move (../verlet.cpp:52)
Per MPI rank memory allocation (min/avg/max) = 7.059 | 7.059 | 7.059 Mbytes
Step Temp PotEng TotEng Press Volume 
      20            0 2.2634562e+21 2.2634562e+21 3.1436892e+20        172.8 
      21            0 2.2634562e+21 2.2634562e+21 3.1436892e+20        172.8 
Loop time of 0.000304 on 1 procs for 1 steps with 2 atoms

Performance: 568421.051 tau/day, 3289.474 timesteps/s
0.0% CPU use with 1 MPI tasks x no OpenMP threads

MPI task timing breakdown:
Section |  min time  |  avg time  |  max time  |%varavg| %total
---------------------------------------------------------------
Pair    | 3.7e-06    | 3.7e-06    | 3.7e-06    |   0.0 |  1.22
Neigh   | 0          | 0          | 0          |   0.0 |  0.00
Comm    | 4.6e-06    | 4.6e-06    | 4.6e-06    |   0.0 |  1.51
Output  | 0.0002785  | 0.0002785  | 0.0002785  |   0.0 | 91.61
Modify  | 3.4e-06    | 3.4e-06    | 3.4e-06    |   0.0 |  1.12
Other   |            | 1.38e-05   |            |       |  4.54

Nlocal:    2 ave 2 max 2 min
Histogram: 1 0 0 0 0 0 0 0 0 0
Nghost:    52 ave 52 max 52 min
Histogram: 1 0 0 0 0 0 0 0 0 0
Neighs:    1 ave 1 max 1 min
Histogram: 1 0 0 0 0 0 0 0 0 0

Total # of neighbors = 1
Ave neighs/atom = 0.5
Neighbor list builds = 0
Dangerous builds = 0
#write_dump all custom dump.n$n.atom id type x y z fx fy fz
undump 1
next n
jump SELF loop
variable d equal $n*0.00001
variable d equal 22*0.00001

displace_atoms move move $d $d $d units box
displace_atoms move move 0.00022 $d $d units box
displace_atoms move move 0.00022 0.00022 $d units box
displace_atoms move move 0.00022 0.00022 0.00022 units box
compute $n all pe/atom
compute 22 all pe/atom
dump 1 all custom 1 dump.n$n.atom id type x y z fx fy fz c_$n
dump 1 all custom 1 dump.n22.atom id type x y z fx fy fz c_$n
dump 1 all custom 1 dump.n22.atom id type x y z fx fy fz c_22
run 1
WARNING: No fixes defined, atoms won't move (../verlet.cpp:52)
Per MPI rank memory allocation (min/avg/max) = 7.184 | 7.184 | 7.184 Mbytes
Step Temp PotEng TotEng Press Volume 
      21            0 2.1766051e+21 2.1766051e+21 3.0230627e+20        172.8 
      22            0 2.1766051e+21 2.1766051e+21 3.0230627e+20        172.8 
Loop time of 0.0003229 on 1 procs for 1 steps with 2 atoms

Performance: 535150.202 tau/day, 3096.934 timesteps/s
0.0% CPU use with 1 MPI tasks x no OpenMP threads

MPI task timing breakdown:
Section |  min time  |  avg time  |  max time  |%varavg| %total
---------------------------------------------------------------
Pair    | 3.9e-06    | 3.9e-06    | 3.9e-06    |   0.0 |  1.21
Neigh   | 0          | 0          | 0          |   0.0 |  0.00
Comm    | 4.8e-06    | 4.8e-06    | 4.8e-06    |   0.0 |  1.49
Output  | 0.0002967  | 0.0002967  | 0.0002967  |   0.0 | 91.89
Modify  | 3.4e-06    | 3.4e-06    | 3.4e-06    |   0.0 |  1.05
Other   |            | 1.41e-05   |            |       |  4.37

Nlocal:    2 ave 2 max 2 min
Histogram: 1 0 0 0 0 0 0 0 0 0
Nghost:    52 ave 52 max 52 min
Histogram: 1 0 0 0 0 0 0 0 0 0
Neighs:    1 ave 1 max 1 min
Histogram: 1 0 0 0 0 0 0 0 0 0

Total # of neighbors = 1
Ave neighs/atom = 0.5
Neighbor list builds = 0
Dangerous builds = 0
#write_dump all custom dump.n$n.atom id type x y z fx fy fz
undump 1
next n
jump SELF loop
variable d equal $n*0.00001
variable d equal 23*0.00001

displace_atoms move move $d $d $d units box
displace_atoms move move 0.00023 $d $d units box
displace_atoms move move 0.00023 0.00023 $d units box
displace_atoms move move 0.00023 0.00023 0.00023 units box
compute $n all pe/atom
compute 23 all pe/atom
dump 1 all custom 1 dump.n$n.atom id type x y z fx fy fz c_$n
dump 1 all custom 1 dump.n23.atom id type x y z fx fy fz c_$n
dump 1 all custom 1 dump.n23.atom id type x y z fx fy fz c_23
run 1
WARNING: No fixes defined, atoms won't move (../verlet.cpp:52)
Per MPI rank memory allocation (min/avg/max) = 7.309 | 7.309 | 7.309 Mbytes
Step Temp PotEng TotEng Press Volume 
      22            0 2.0894623e+21 2.0894623e+21 2.9020309e+20        172.8 
      23            0 2.0894623e+21 2.0894623e+21 2.9020309e+20        172.8 
Loop time of 0.0003458 on 1 procs for 1 steps with 2 atoms

Performance: 499710.817 tau/day, 2891.845 timesteps/s
0.0% CPU use with 1 MPI tasks x no OpenMP threads

MPI task timing breakdown:
Section |  min time  |  avg time  |  max time  |%varavg| %total
---------------------------------------------------------------
Pair    | 3.2e-06    | 3.2e-06    | 3.2e-06    |   0.0 |  0.93
Neigh   | 0          | 0          | 0          |   0.0 |  0.00
Comm    | 4.9e-06    | 4.9e-06    | 4.9e-06    |   0.0 |  1.42
Output  | 0.0003169  | 0.0003169  | 0.0003169  |   0.0 | 91.64
Modify  | 4e-06      | 4e-06      | 4e-06      |   0.0 |  1.16
Other   |            | 1.68e-05   |            |       |  4.86

Nlocal:    2 ave 2 max 2 min
Histogram: 1 0 0 0 0 0 0 0 0 0
Nghost:    52 ave 52 max 52 min
Histogram: 1 0 0 0 0 0 0 0 0 0
Neighs:    1 ave 1 max 1 min
Histogram: 1 0 0 0 0 0 0 0 0 0

Total # of neighbors = 1
Ave neighs/atom = 0.5
Neighbor list builds = 0
Dangerous builds = 0
#write_dump all custom dump.n$n.atom id type x y z fx fy fz
undump 1
next n
jump SELF loop
variable d equal $n*0.00001
variable d equal 24*0.00001

displace_atoms move move $d $d $d units box
displace_atoms move move 0.00024 $d $d units box
displace_atoms move move 0.00024 0.00024 $d units box
displace_atoms move move 0.00024 0.00024 0.00024 units box
compute $n all pe/atom
compute 24 all pe/atom
dump 1 all custom 1 dump.n$n.atom id type x y z fx fy fz c_$n
dump 1 all custom 1 dump.n24.atom id type x y z fx fy fz c_$n
dump 1 all custom 1 dump.n24.atom id type x y z fx fy fz c_24
run 1
WARNING: No fixes defined, atoms won't move (../verlet.cpp:52)
Per MPI rank memory allocation (min/avg/max) = 7.434 | 7.434 | 7.434 Mbytes
Step Temp PotEng TotEng Press Volume 
      23            0 2.002347e+21 2.002347e+21 2.7810375e+20        172.8 
      24            0 2.002347e+21 2.002347e+21 2.7810375e+20        172.8 
Loop time of 0.0003209 on 1 procs for 1 steps with 2 atoms

Performance: 538485.499 tau/day, 3116.236 timesteps/s
0.0% CPU use with 1 MPI tasks x no OpenMP threads

MPI task timing breakdown:
Section |  min time  |  avg time  |  max time  |%varavg| %total
---------------------------------------------------------------
Pair    | 4.9e-06    | 4.9e-06    | 4.9e-06    |   0.0 |  1.53
Neigh   | 0          | 0          | 0          |   0.0 |  0.00
Comm    | 5.5e-06    | 5.5e-06    | 5.5e-06    |   0.0 |  1.71
Output  | 0.0002765  | 0.0002765  | 0.0002765  |   0.0 | 86.16
Modify  | 4.6e-06    | 4.6e-06    | 4.6e-06    |   0.0 |  1.43
Other   |            | 2.94e-05   |            |       |  9.16

Nlocal:    2 ave 2 max 2 min
Histogram: 1 0 0 0 0 0 0 0 0 0
Nghost:    52 ave 52 max 52 min
Histogram: 1 0 0 0 0 0 0 0 0 0
Neighs:    1 ave 1 max 1 min
Histogram: 1 0 0 0 0 0 0 0 0 0

Total # of neighbors = 1
Ave neighs/atom = 0.5
Neighbor list builds = 0
Dangerous builds = 0
#write_dump all custom dump.n$n.atom id type x y z fx fy fz
undump 1
next n
jump SELF loop
variable d equal $n*0.00001
variable d equal 25*0.00001

displace_atoms move move $d $d $d units box
displace_atoms move move 0.00025 $d $d units box
displace_atoms move move 0.00025 0.00025 $d units box
displace_atoms move move 0.00025 0.00025 0.00025 units box
compute $n all pe/atom
compute 25 all pe/atom
dump 1 all custom 1 dump.n$n.atom id type x y z fx fy fz c_$n
dump 1 all custom 1 dump.n25.atom id type x y z fx fy fz c_$n
dump 1 all custom 1 dump.n25.atom id type x y z fx fy fz c_25
run 1
WARNING: No fixes defined, atoms won't move (../verlet.cpp:52)
Per MPI rank memory allocation (min/avg/max) = 7.559 | 7.559 | 7.559 Mbytes
Step Temp PotEng TotEng Press Volume 
      24            0 1.9155644e+21 1.9155644e+21 2.6605061e+20        172.8 
      25            0 1.9155644e+21 1.9155644e+21 2.6605061e+20        172.8 
Loop time of 0.0003247 on 1 procs for 1 steps with 2 atoms

Performance: 532183.556 tau/day, 3079.766 timesteps/s
0.0% CPU use with 1 MPI tasks x no OpenMP threads

MPI task timing breakdown:
Section |  min time  |  avg time  |  max time  |%varavg| %total
---------------------------------------------------------------
Pair    | 4.1e-06    | 4.1e-06    | 4.1e-06    |   0.0 |  1.26
Neigh   | 0          | 0          | 0          |   0.0 |  0.00
Comm    | 5.5e-06    | 5.5e-06    | 5.5e-06    |   0.0 |  1.69
Output  | 0.0002951  | 0.0002951  | 0.0002951  |   0.0 | 90.88
Modify  | 4.3e-06    | 4.3e-06    | 4.3e-06    |   0.0 |  1.32
Other   |            | 1.57e-05   |            |       |  4.84

Nlocal:    2 ave 2 max 2 min
Histogram: 1 0 0 0 0 0 0 0 0 0
Nghost:    52 ave 52 max 52 min
Histogram: 1 0 0 0 0 0 0 0 0 0
Neighs:    1 ave 1 max 1 min
Histogram: 1 0 0 0 0 0 0 0 0 0

Total # of neighbors = 1
Ave neighs/atom = 0.5
Neighbor list builds = 0
Dangerous builds = 0
#write_dump all custom dump.n$n.atom id type x y z fx fy fz
undump 1
next n
jump SELF loop
variable d equal $n*0.00001
variable d equal 26*0.00001

displace_atoms move move $d $d $d units box
displace_atoms move move 0.00026 $d $d units box
displace_atoms move move 0.00026 0.00026 $d units box
displace_atoms move move 0.00026 0.00026 0.00026 units box
compute $n all pe/atom
compute 26 all pe/atom
dump 1 all custom 1 dump.n$n.atom id type x y z fx fy fz c_$n
dump 1 all custom 1 dump.n26.atom id type x y z fx fy fz c_$n
dump 1 all custom 1 dump.n26.atom id type x y z fx fy fz c_26
run 1
WARNING: No fixes defined, atoms won't move (../verlet.cpp:52)
Per MPI rank memory allocation (min/avg/max) = 7.684 | 7.684 | 7.684 Mbytes
Step Temp PotEng TotEng Press Volume 
      25            0 1.8294037e+21 1.8294037e+21 2.5408385e+20        172.8 
      26            0 1.8294037e+21 1.8294037e+21 2.5408385e+20        172.8 
Loop time of 0.0003247 on 1 procs for 1 steps with 2 atoms

Performance: 532183.544 tau/day, 3079.766 timesteps/s
0.0% CPU use with 1 MPI tasks x no OpenMP threads

MPI task timing breakdown:
Section |  min time  |  avg time  |  max time  |%varavg| %total
---------------------------------------------------------------
Pair    | 5.5e-06    | 5.5e-06    | 5.5e-06    |   0.0 |  1.69
Neigh   | 0          | 0          | 0          |   0.0 |  0.00
Comm    | 5.8e-06    | 5.8e-06    | 5.8e-06    |   0.0 |  1.79
Output  | 0.0002872  | 0.0002872  | 0.0002872  |   0.0 | 88.45
Modify  | 6.4e-06    | 6.4e-06    | 6.4e-06    |   0.0 |  1.97
Other   |            | 1.98e-05   |            |       |  6.10

Nlocal:    2 ave 2 max 2 min
Histogram: 1 0 0 0 0 0 0 0 0 0
Nghost:    52 ave 52 max 52 min
Histogram: 1 0 0 0 0 0 0 0 0 0
Neighs:    1 ave 1 max 1 min
Histogram: 1 0 0 0 0 0 0 0 0 0

Total # of neighbors = 1
Ave neighs/atom = 0.5
Neighbor list builds = 0
Dangerous builds = 0
#write_dump all custom dump.n$n.atom id type x y z fx fy fz
undump 1
next n
jump SELF loop
variable d equal $n*0.00001
variable d equal 27*0.00001

displace_atoms move move $d $d $d units box
displace_atoms move move 0.00027 $d $d units box
displace_atoms move move 0.00027 0.00027 $d units box
displace_atoms move move 0.00027 0.00027 0.00027 units box
compute $n all pe/atom
compute 27 all pe/atom
dump 1 all custom 1 dump.n$n.atom id type x y z fx fy fz c_$n
dump 1 all custom 1 dump.n27.atom id type x y z fx fy fz c_$n
dump 1 all custom 1 dump.n27.atom id type x y z fx fy fz c_27
run 1
WARNING: No fixes defined, atoms won't move (../verlet.cpp:52)
Per MPI rank memory allocation (min/avg/max) = 7.809 | 7.809 | 7.809 Mbytes
Step Temp PotEng TotEng Press Volume 
      26            0 1.7441371e+21 1.7441371e+21 2.4224126e+20        172.8 
      27            0 1.7441371e+21 1.7441371e+21 2.4224126e+20        172.8 
Loop time of 0.0002542 on 1 procs for 1 steps with 2 atoms

Performance: 679779.700 tau/day, 3933.910 timesteps/s
0.0% CPU use with 1 MPI tasks x no OpenMP threads

MPI task timing breakdown:
Section |  min time  |  avg time  |  max time  |%varavg| %total
---------------------------------------------------------------
Pair    | 5.4e-06    | 5.4e-06    | 5.4e-06    |   0.0 |  2.12
Neigh   | 0          | 0          | 0          |   0.0 |  0.00
Comm    | 5.7e-06    | 5.7e-06    | 5.7e-06    |   0.0 |  2.24
Output  | 0.0002245  | 0.0002245  | 0.0002245  |   0.0 | 88.32
Modify  | 3.7e-06    | 3.7e-06    | 3.7e-06    |   0.0 |  1.46
Other   |            | 1.49e-05   |            |       |  5.86

Nlocal:    2 ave 2 max 2 min
Histogram: 1 0 0 0 0 0 0 0 0 0
Nghost:    52 ave 52 max 52 min
Histogram: 1 0 0 0 0 0 0 0 0 0
Neighs:    1 ave 1 max 1 min
Histogram: 1 0 0 0 0 0 0 0 0 0

Total # of neighbors = 1
Ave neighs/atom = 0.5
Neighbor list builds = 0
Dangerous builds = 0
#write_dump all custom dump.n$n.atom id type x y z fx fy fz
undump 1
next n
jump SELF loop
variable d equal $n*0.00001
variable d equal 28*0.00001

displace_atoms move move $d $d $d units box
displace_atoms move move 0.00028 $d $d units box
displace_atoms move move 0.00028 0.00028 $d units box
displace_atoms move move 0.00028 0.00028 0.00028 units box
compute $n all pe/atom
compute 28 all pe/atom
dump 1 all custom 1 dump.n$n.atom id type x y z fx fy fz c_$n
dump 1 all custom 1 dump.n28.atom id type x y z fx fy fz c_$n
dump 1 all custom 1 dump.n28.atom id type x y z fx fy fz c_28
run 1
WARNING: No fixes defined, atoms won't move (../verlet.cpp:52)
Per MPI rank memory allocation (min/avg/max) = 7.934 | 7.934 | 7.934 Mbytes
Step Temp PotEng TotEng Press Volume 
      27            0 1.6600185e+21 1.6600185e+21 2.3055813e+20        172.8 
      28            0 1.6600185e+21 1.6600185e+21 2.3055813e+20        172.8 
Loop time of 0.0002654 on 1 procs for 1 steps with 2 atoms

Performance: 651092.695 tau/day, 3767.898 timesteps/s
0.0% CPU use with 1 MPI tasks x no OpenMP threads

MPI task timing breakdown:
Section |  min time  |  avg time  |  max time  |%varavg| %total
---------------------------------------------------------------
Pair    | 5.7e-06    | 5.7e-06    | 5.7e-06    |   0.0 |  2.15
Neigh   | 0          | 0          | 0          |   0.0 |  0.00
Comm    | 6.5e-06    | 6.5e-06    | 6.5e-06    |   0.0 |  2.45
Output  | 0.0002314  | 0.0002314  | 0.0002314  |   0.0 | 87.19
Modify  | 4.3e-06    | 4.3e-06    | 4.3e-06    |   0.0 |  1.62
Other   |            | 1.75e-05   |            |       |  6.59

Nlocal:    2 ave 2 max 2 min
Histogram: 1 0 0 0 0 0 0 0 0 0
Nghost:    52 ave 52 max 52 min
Histogram: 1 0 0 0 0 0 0 0 0 0
Neighs:    1 ave 1 max 1 min
Histogram: 1 0 0 0 0 0 0 0 0 0

Total # of neighbors = 1
Ave neighs/atom = 0.5
Neighbor list builds = 0
Dangerous builds = 0
#write_dump all custom dump.n$n.atom id type x y z fx fy fz
undump 1
next n
jump SELF loop
variable d equal $n*0.00001
variable d equal 29*0.00001

displace_atoms move move $d $d $d units box
displace_atoms move move 0.00029 $d $d units box
displace_atoms move move 0.00029 0.00029 $d units box
displace_atoms move move 0.00029 0.00029 0.00029 units box
compute $n all pe/atom
compute 29 all pe/atom
dump 1 all custom 1 dump.n$n.atom id type x y z fx fy fz c_$n
dump 1 all custom 1 dump.n29.atom id type x y z fx fy fz c_$n
dump 1 all custom 1 dump.n29.atom id type x y z fx fy fz c_29
run 1
WARNING: No fixes defined, atoms won't move (../verlet.cpp:52)
Per MPI rank memory allocation (min/avg/max) = 8.059 | 8.059 | 8.059 Mbytes
Step Temp PotEng TotEng Press Volume 
      28            0 1.5772829e+21 1.5772829e+21 2.1906707e+20        172.8 
      29            0 1.5772829e+21 1.5772829e+21 2.1906707e+20        172.8 
Loop time of 0.0003066 on 1 procs for 1 steps with 2 atoms

Performance: 563600.785 tau/day, 3261.579 timesteps/s
0.0% CPU use with 1 MPI tasks x no OpenMP threads

MPI task timing breakdown:
Section |  min time  |  avg time  |  max time  |%varavg| %total
---------------------------------------------------------------
Pair    | 6.1e-06    | 6.1e-06    | 6.1e-06    |   0.0 |  1.99
Neigh   | 0          | 0          | 0          |   0.0 |  0.00
Comm    | 6.5e-06    | 6.5e-06    | 6.5e-06    |   0.0 |  2.12
Output  | 0.0002718  | 0.0002718  | 0.0002718  |   0.0 | 88.65
Modify  | 4.3e-06    | 4.3e-06    | 4.3e-06    |   0.0 |  1.40
Other   |            | 1.79e-05   |            |       |  5.84

Nlocal:    2 ave 2 max 2 min
Histogram: 1 0 0 0 0 0 0 0 0 0
Nghost:    52 ave 52 max 52 min
Histogram: 1 0 0 0 0 0 0 0 0 0
Neighs:    1 ave 1 max 1 min
Histogram: 1 0 0 0 0 0 0 0 0 0

Total # of neighbors = 1
Ave neighs/atom = 0.5
Neighbor list builds = 0
Dangerous builds = 0
#write_dump all custom dump.n$n.atom id type x y z fx fy fz
undump 1
next n
jump SELF loop
variable d equal $n*0.00001
variable d equal 30*0.00001

displace_atoms move move $d $d $d units box
displace_atoms move move 0.0003 $d $d units box
displace_atoms move move 0.0003 0.0003 $d units box
displace_atoms move move 0.0003 0.0003 0.0003 units box
compute $n all pe/atom
compute 30 all pe/atom
dump 1 all custom 1 dump.n$n.atom id type x y z fx fy fz c_$n
dump 1 all custom 1 dump.n30.atom id type x y z fx fy fz c_$n
dump 1 all custom 1 dump.n30.atom id type x y z fx fy fz c_30
run 1
WARNING: No fixes defined, atoms won't move (../verlet.cpp:52)
Per MPI rank memory allocation (min/avg/max) = 8.184 | 8.184 | 8.184 Mbytes
Step Temp PotEng TotEng Press Volume 
      29            0 1.4961452e+21 1.4961452e+21 2.0779794e+20        172.8 
      30            0 1.4961452e+21 1.4961452e+21 2.0779794e+20        172.8 
Loop time of 0.0002814 on 1 procs for 1 steps with 2 atoms

Performance: 614072.487 tau/day, 3553.660 timesteps/s
0.0% CPU use with 1 MPI tasks x no OpenMP threads

MPI task timing breakdown:
Section |  min time  |  avg time  |  max time  |%varavg| %total
---------------------------------------------------------------
Pair    | 4.7e-06    | 4.7e-06    | 4.7e-06    |   0.0 |  1.67
Neigh   | 0          | 0          | 0          |   0.0 |  0.00
Comm    | 5.3e-06    | 5.3e-06    | 5.3e-06    |   0.0 |  1.88
Output  | 0.0002504  | 0.0002504  | 0.0002504  |   0.0 | 88.98
Modify  | 4.1e-06    | 4.1e-06    | 4.1e-06    |   0.0 |  1.46
Other   |            | 1.69e-05   |            |       |  6.01

Nlocal:    2 ave 2 max 2 min
Histogram: 1 0 0 0 0 0 0 0 0 0
Nghost:    52 ave 52 max 52 min
Histogram: 1 0 0 0 0 0 0 0 0 0
Neighs:    1 ave 1 max 1 min
Histogram: 1 0 0 0 0 0 0 0 0 0

Total # of neighbors = 1
Ave neighs/atom = 0.5
Neighbor list builds = 0
Dangerous builds = 0
#write_dump all custom dump.n$n.atom id type x y z fx fy fz
undump 1
next n
jump SELF loop
variable d equal $n*0.00001
variable d equal 31*0.00001

displace_atoms move move $d $d $d units box
displace_atoms move move 0.00031 $d $d units box
displace_atoms move move 0.00031 0.00031 $d units box
displace_atoms move move 0.00031 0.00031 0.00031 units box
compute $n all pe/atom
compute 31 all pe/atom
dump 1 all custom 1 dump.n$n.atom id type x y z fx fy fz c_$n
dump 1 all custom 1 dump.n31.atom id type x y z fx fy fz c_$n
dump 1 all custom 1 dump.n31.atom id type x y z fx fy fz c_31
run 1
WARNING: No fixes defined, atoms won't move (../verlet.cpp:52)
Per MPI rank memory allocation (min/avg/max) = 8.309 | 8.309 | 8.309 Mbytes
Step Temp PotEng TotEng Press Volume 
      30            0 1.4168004e+21 1.4168004e+21 1.9677783e+20        172.8 
      31            0 1.4168004e+21 1.4168004e+21 1.9677783e+20        172.8 
Loop time of 0.0003297 on 1 procs for 1 steps with 2 atoms

Performance: 524112.829 tau/day, 3033.060 timesteps/s
0.0% CPU use with 1 MPI tasks x no OpenMP threads

MPI task timing breakdown:
Section |  min time  |  avg time  |  max time  |%varavg| %total
---------------------------------------------------------------
Pair    | 3.3e-06    | 3.3e-06    | 3.3e-06    |   0.0 |  1.00
Neigh   | 0          | 0          | 0          |   0.0 |  0.00
Comm    | 4.6e-06    | 4.6e-06    | 4.6e-06    |   0.0 |  1.40
Output  | 0.0002909  | 0.0002909  | 0.0002909  |   0.0 | 88.23
Modify  | 1.69e-05   | 1.69e-05   | 1.69e-05   |   0.0 |  5.13
Other   |            | 1.4e-05    |            |       |  4.25

Nlocal:    2 ave 2 max 2 min
Histogram: 1 0 0 0 0 0 0 0 0 0
Nghost:    52 ave 52 max 52 min
Histogram: 1 0 0 0 0 0 0 0 0 0
Neighs:    1 ave 1 max 1 min
Histogram: 1 0 0 0 0 0 0 0 0 0

Total # of neighbors = 1
Ave neighs/atom = 0.5
Neighbor list builds = 0
Dangerous builds = 0
#write_dump all custom dump.n$n.atom id type x y z fx fy fz
undump 1
next n
jump SELF loop
variable d equal $n*0.00001
variable d equal 32*0.00001

displace_atoms move move $d $d $d units box
displace_atoms move move 0.00032 $d $d units box
displace_atoms move move 0.00032 0.00032 $d units box
displace_atoms move move 0.00032 0.00032 0.00032 units box
compute $n all pe/atom
compute 32 all pe/atom
dump 1 all custom 1 dump.n$n.atom id type x y z fx fy fz c_$n
dump 1 all custom 1 dump.n32.atom id type x y z fx fy fz c_$n
dump 1 all custom 1 dump.n32.atom id type x y z fx fy fz c_32
run 1
WARNING: No fixes defined, atoms won't move (../verlet.cpp:52)
Per MPI rank memory allocation (min/avg/max) = 8.434 | 8.434 | 8.434 Mbytes
Step Temp PotEng TotEng Press Volume 
      31            0 1.3394228e+21 1.3394228e+21 1.8603095e+20        172.8 
      32            0 1.3394228e+21 1.3394228e+21 1.8603095e+20        172.8 
Loop time of 0.000209 on 1 procs for 1 steps with 2 atoms

Performance: 826794.238 tau/day, 4784.689 timesteps/s
0.0% CPU use with 1 MPI tasks x no OpenMP threads

MPI task timing breakdown:
Section |  min time  |  avg time  |  max time  |%varavg| %total
---------------------------------------------------------------
Pair    | 3.2e-06    | 3.2e-06    | 3.2e-06    |   0.0 |  1.53
Neigh   | 0          | 0          | 0          |   0.0 |  0.00
Comm    | 4.6e-06    | 4.6e-06    | 4.6e-06    |   0.0 |  2.20
Output  | 0.000185   | 0.000185   | 0.000185   |   0.0 | 88.52
Modify  | 3.4e-06    | 3.4e-06    | 3.4e-06    |   0.0 |  1.63
Other   |            | 1.28e-05   |            |       |  6.12

Nlocal:    2 ave 2 max 2 min
Histogram: 1 0 0 0 0 0 0 0 0 0
Nghost:    52 ave 52 max 52 min
Histogram: 1 0 0 0 0 0 0 0 0 0
Neighs:    1 ave 1 max 1 min
Histogram: 1 0 0 0 0 0 0 0 0 0

Total # of neighbors = 1
Ave neighs/atom = 0.5
Neighbor list builds = 0
Dangerous builds = 0
#write_dump all custom dump.n$n.atom id type x y z fx fy fz
undump 1
next n
jump SELF loop
variable d equal $n*0.00001
variable d equal 33*0.00001

displace_atoms move move $d $d $d units box
displace_atoms move move 0.00033 $d $d units box
displace_atoms move move 0.00033 0.00033 $d units box
displace_atoms move move 0.00033 0.00033 0.00033 units box
compute $n all pe/atom
compute 33 all pe/atom
dump 1 all custom 1 dump.n$n.atom id type x y z fx fy fz c_$n
dump 1 all custom 1 dump.n33.atom id type x y z fx fy fz c_$n
dump 1 all custom 1 dump.n33.atom id type x y z fx fy fz c_33
run 1
WARNING: No fixes defined, atoms won't move (../verlet.cpp:52)
Per MPI rank memory allocation (min/avg/max) = 8.559 | 8.559 | 8.559 Mbytes
Step Temp PotEng TotEng Press Volume 
      32            0 1.2641666e+21 1.2641666e+21 1.7557869e+20        172.8 
      33            0 1.2641666e+21 1.2641666e+21 1.7557869e+20        172.8 
Loop time of 0.0003538 on 1 procs for 1 steps with 2 atoms

Performance: 488411.539 tau/day, 2826.456 timesteps/s
0.0% CPU use with 1 MPI tasks x no OpenMP threads

MPI task timing breakdown:
Section |  min time  |  avg time  |  max time  |%varavg| %total
---------------------------------------------------------------
Pair    | 3.5e-06    | 3.5e-06    | 3.5e-06    |   0.0 |  0.99
Neigh   | 0          | 0          | 0          |   0.0 |  0.00
Comm    | 4.8e-06    | 4.8e-06    | 4.8e-06    |   0.0 |  1.36
Output  | 0.0003279  | 0.0003279  | 0.0003279  |   0.0 | 92.68
Modify  | 3.4e-06    | 3.4e-06    | 3.4e-06    |   0.0 |  0.96
Other   |            | 1.42e-05   |            |       |  4.01

Nlocal:    2 ave 2 max 2 min
Histogram: 1 0 0 0 0 0 0 0 0 0
Nghost:    52 ave 52 max 52 min
Histogram: 1 0 0 0 0 0 0 0 0 0
Neighs:    1 ave 1 max 1 min
Histogram: 1 0 0 0 0 0 0 0 0 0

Total # of neighbors = 1
Ave neighs/atom = 0.5
Neighbor list builds = 0
Dangerous builds = 0
#write_dump all custom dump.n$n.atom id type x y z fx fy fz
undump 1
next n
jump SELF loop
variable d equal $n*0.00001
variable d equal 34*0.00001

displace_atoms move move $d $d $d units box
displace_atoms move move 0.00034 $d $d units box
displace_atoms move move 0.00034 0.00034 $d units box
displace_atoms move move 0.00034 0.00034 0.00034 units box
compute $n all pe/atom
compute 34 all pe/atom
dump 1 all custom 1 dump.n$n.atom id type x y z fx fy fz c_$n
dump 1 all custom 1 dump.n34.atom id type x y z fx fy fz c_$n
dump 1 all custom 1 dump.n34.atom id type x y z fx fy fz c_34
run 1
WARNING: No fixes defined, atoms won't move (../verlet.cpp:52)
Per MPI rank memory allocation (min/avg/max) = 8.684 | 8.684 | 8.684 Mbytes
Step Temp PotEng TotEng Press Volume 
      33            0 1.1911653e+21 1.1911653e+21 1.6543963e+20        172.8 
      34            0 1.1911653e+21 1.1911653e+21 1.6543963e+20        172.8 
Loop time of 0.0003056 on 1 procs for 1 steps with 2 atoms

Performance: 565445.015 tau/day, 3272.251 timesteps/s
0.0% CPU use with 1 MPI tasks x no OpenMP threads

MPI task timing breakdown:
Section |  min time  |  avg time  |  max time  |%varavg| %total
---------------------------------------------------------------
Pair    | 3.6e-06    | 3.6e-06    | 3.6e-06    |   0.0 |  1.18
Neigh   | 0          | 0          | 0          |   0.0 |  0.00
Comm    | 4.6e-06    | 4.6e-06    | 4.6e-06    |   0.0 |  1.51
Output  | 0.0002797  | 0.0002797  | 0.0002797  |   0.0 | 91.52
Modify  | 3.4e-06    | 3.4e-06    | 3.4e-06    |   0.0 |  1.11
Other   |            | 1.43e-05   |            |       |  4.68

Nlocal:    2 ave 2 max 2 min
Histogram: 1 0 0 0 0 0 0 0 0 0
Nghost:    52 ave 52 max 52 min
Histogram: 1 0 0 0 0 0 0 0 0 0
Neighs:    1 ave 1 max 1 min
Histogram: 1 0 0 0 0 0 0 0 0 0

Total # of neighbors = 1
Ave neighs/atom = 0.5
Neighbor list builds = 0
Dangerous builds = 0
#write_dump all custom dump.n$n.atom id type x y z fx fy fz
undump 1
next n
jump SELF loop
variable d equal $n*0.00001
variable d equal 35*0.00001

displace_atoms move move $d $d $d units box
displace_atoms move move 0.00035 $d $d units box
displace_atoms move move 0.00035 0.00035 $d units box
displace_atoms move move 0.00035 0.00035 0.00035 units box
compute $n all pe/atom
compute 35 all pe/atom
dump 1 all custom 1 dump.n$n.atom id type x y z fx fy fz c_$n
dump 1 all custom 1 dump.n35.atom id type x y z fx fy fz c_$n
dump 1 all custom 1 dump.n35.atom id type x y z fx fy fz c_35
run 1
WARNING: No fixes defined, atoms won't move (../verlet.cpp:52)
Per MPI rank memory allocation (min/avg/max) = 8.809 | 8.809 | 8.809 Mbytes
Step Temp PotEng TotEng Press Volume 
      34            0 1.1205326e+21 1.1205326e+21 1.5562953e+20        172.8 
      35            0 1.1205326e+21 1.1205326e+21 1.5562953e+20        172.8 
Loop time of 0.0003323 on 1 procs for 1 steps with 2 atoms

Performance: 520012.040 tau/day, 3009.329 timesteps/s
0.0% CPU use with 1 MPI tasks x no OpenMP threads

MPI task timing breakdown:
Section |  min time  |  avg time  |  max time  |%varavg| %total
---------------------------------------------------------------
Pair    | 4.6e-06    | 4.6e-06    | 4.6e-06    |   0.0 |  1.38
Neigh   | 0          | 0          | 0          |   0.0 |  0.00
Comm    | 5.5e-06    | 5.5e-06    | 5.5e-06    |   0.0 |  1.66
Output  | 0.0003013  | 0.0003013  | 0.0003013  |   0.0 | 90.67
Modify  | 4.3e-06    | 4.3e-06    | 4.3e-06    |   0.0 |  1.29
Other   |            | 1.66e-05   |            |       |  5.00

Nlocal:    2 ave 2 max 2 min
Histogram: 1 0 0 0 0 0 0 0 0 0
Nghost:    52 ave 52 max 52 min
Histogram: 1 0 0 0 0 0 0 0 0 0
Neighs:    1 ave 1 max 1 min
Histogram: 1 0 0 0 0 0 0 0 0 0

Total # of neighbors = 1
Ave neighs/atom = 0.5
Neighbor list builds = 0
Dangerous builds = 0
#write_dump all custom dump.n$n.atom id type x y z fx fy fz
undump 1
next n
jump SELF loop
variable d equal $n*0.00001
variable d equal 36*0.00001

displace_atoms move move $d $d $d units box
displace_atoms move move 0.00036 $d $d units box
displace_atoms move move 0.00036 0.00036 $d units box
displace_atoms move move 0.00036 0.00036 0.00036 units box
compute $n all pe/atom
compute 36 all pe/atom
dump 1 all custom 1 dump.n$n.atom id type x y z fx fy fz c_$n
dump 1 all custom 1 dump.n36.atom id type x y z fx fy fz c_$n
dump 1 all custom 1 dump.n36.atom id type x y z fx fy fz c_36
run 1
WARNING: No fixes defined, atoms won't move (../verlet.cpp:52)
Per MPI rank memory allocation (min/avg/max) = 8.934 | 8.934 | 8.934 Mbytes
Step Temp PotEng TotEng Press Volume 
      35            0 1.0523626e+21 1.0523626e+21 1.4616147e+20        172.8 
      36            0 1.0523626e+21 1.0523626e+21 1.4616147e+20        172.8 
Loop time of 0.0003378 on 1 procs for 1 steps with 2 atoms

Performance: 511545.298 tau/day, 2960.332 timesteps/s
0.0% CPU use with 1 MPI tasks x no OpenMP threads

MPI task timing breakdown:
Section |  min time  |  avg time  |  max time  |%varavg| %total
---------------------------------------------------------------
Pair    | 3.4e-06    | 3.4e-06    | 3.4e-06    |   0.0 |  1.01
Neigh   | 0          | 0          | 0          |   0.0 |  0.00
Comm    | 4.9e-06    | 4.9e-06    | 4.9e-06    |   0.0 |  1.45
Output  | 0.0003117  | 0.0003117  | 0.0003117  |   0.0 | 92.27
Modify  | 3.4e-06    | 3.4e-06    | 3.4e-06    |   0.0 |  1.01
Other   |            | 1.44e-05   |            |       |  4.26

Nlocal:    2 ave 2 max 2 min
Histogram: 1 0 0 0 0 0 0 0 0 0
Nghost:    52 ave 52 max 52 min
Histogram: 1 0 0 0 0 0 0 0 0 0
Neighs:    1 ave 1 max 1 min
Histogram: 1 0 0 0 0 0 0 0 0 0

Total # of neighbors = 1
Ave neighs/atom = 0.5
Neighbor list builds = 0
Dangerous builds = 0
#write_dump all custom dump.n$n.atom id type x y z fx fy fz
undump 1
next n
jump SELF loop
variable d equal $n*0.00001
variable d equal 37*0.00001

displace_atoms move move $d $d $d units box
displace_atoms move move 0.00037 $d $d units box
displace_atoms move move 0.00037 0.00037 $d units box
displace_atoms move move 0.00037 0.00037 0.00037 units box
compute $n all pe/atom
compute 37 all pe/atom
dump 1 all custom 1 dump.n$n.atom id type x y z fx fy fz c_$n
dump 1 all custom 1 dump.n37.atom id type x y z fx fy fz c_$n
dump 1 all custom 1 dump.n37.atom id type x y z fx fy fz c_37
run 1
WARNING: No fixes defined, atoms won't move (../verlet.cpp:52)
Per MPI rank memory allocation (min/avg/max) = 9.059 | 9.059 | 9.059 Mbytes
Step Temp PotEng TotEng Press Volume 
      36            0 9.8673049e+20 9.8673049e+20 1.370459e+20        172.8 
      37            0 9.8673049e+20 9.8673049e+20 1.370459e+20        172.8 
Loop time of 0.0003084 on 1 procs for 1 steps with 2 atoms

Performance: 560311.274 tau/day, 3242.542 timesteps/s
0.0% CPU use with 1 MPI tasks x no OpenMP threads

MPI task timing breakdown:
Section |  min time  |  avg time  |  max time  |%varavg| %total
---------------------------------------------------------------
Pair    | 3.6e-06    | 3.6e-06    | 3.6e-06    |   0.0 |  1.17
Neigh   | 0          | 0          | 0          |   0.0 |  0.00
Comm    | 4.6e-06    | 4.6e-06    | 4.6e-06    |   0.0 |  1.49
Output  | 0.0002784  | 0.0002784  | 0.0002784  |   0.0 | 90.27
Modify  | 3.4e-06    | 3.4e-06    | 3.4e-06    |   0.0 |  1.10
Other   |            | 1.84e-05   |            |       |  5.97

Nlocal:    2 ave 2 max 2 min
Histogram: 1 0 0 0 0 0 0 0 0 0
Nghost:    52 ave 52 max 52 min
Histogram: 1 0 0 0 0 0 0 0 0 0
Neighs:    1 ave 1 max 1 min
Histogram: 1 0 0 0 0 0 0 0 0 0

Total # of neighbors = 1
Ave neighs/atom = 0.5
Neighbor list builds = 0
Dangerous builds = 0
#write_dump all custom dump.n$n.atom id type x y z fx fy fz
undump 1
next n
jump SELF loop
variable d equal $n*0.00001
variable d equal 38*0.00001

displace_atoms move move $d $d $d units box
displace_atoms move move 0.00038 $d $d units box
displace_atoms move move 0.00038 0.00038 $d units box
displace_atoms move move 0.00038 0.00038 0.00038 units box
compute $n all pe/atom
compute 38 all pe/atom
dump 1 all custom 1 dump.n$n.atom id type x y z fx fy fz c_$n
dump 1 all custom 1 dump.n38.atom id type x y z fx fy fz c_$n
dump 1 all custom 1 dump.n38.atom id type x y z fx fy fz c_38
run 1
WARNING: No fixes defined, atoms won't move (../verlet.cpp:52)
Per MPI rank memory allocation (min/avg/max) = 9.184 | 9.184 | 9.184 Mbytes
Step Temp PotEng TotEng Press Volume 
      37            0 9.2369334e+20 9.2369334e+20 1.2829074e+20        172.8 
      38            0 9.2369334e+20 9.2369334e+20 1.2829074e+20        172.8 
Loop time of 0.0004074 on 1 procs for 1 steps with 2 atoms

Performance: 424153.164 tau/day, 2454.590 timesteps/s
0.0% CPU use with 1 MPI tasks x no OpenMP threads

MPI task timing breakdown:
Section |  min time  |  avg time  |  max time  |%varavg| %total
---------------------------------------------------------------
Pair    | 5e-06      | 5e-06      | 5e-06      |   0.0 |  1.23
Neigh   | 0          | 0          | 0          |   0.0 |  0.00
Comm    | 5.9e-06    | 5.9e-06    | 5.9e-06    |   0.0 |  1.45
Output  | 0.0003743  | 0.0003743  | 0.0003743  |   0.0 | 91.88
Modify  | 4.9e-06    | 4.9e-06    | 4.9e-06    |   0.0 |  1.20
Other   |            | 1.73e-05   |            |       |  4.25

Nlocal:    2 ave 2 max 2 min
Histogram: 1 0 0 0 0 0 0 0 0 0
Nghost:    52 ave 52 max 52 min
Histogram: 1 0 0 0 0 0 0 0 0 0
Neighs:    1 ave 1 max 1 min
Histogram: 1 0 0 0 0 0 0 0 0 0

Total # of neighbors = 1
Ave neighs/atom = 0.5
Neighbor list builds = 0
Dangerous builds = 0
#write_dump all custom dump.n$n.atom id type x y z fx fy fz
undump 1
next n
jump SELF loop
variable d equal $n*0.00001
variable d equal 39*0.00001

displace_atoms move move $d $d $d units box
displace_atoms move move 0.00039 $d $d units box
displace_atoms move move 0.00039 0.00039 $d units box
displace_atoms move move 0.00039 0.00039 0.00039 units box
compute $n all pe/atom
compute 39 all pe/atom
dump 1 all custom 1 dump.n$n.atom id type x y z fx fy fz c_$n
dump 1 all custom 1 dump.n39.atom id type x y z fx fy fz c_$n
dump 1 all custom 1 dump.n39.atom id type x y z fx fy fz c_39
run 1
WARNING: No fixes defined, atoms won't move (../verlet.cpp:52)
Per MPI rank memory allocation (min/avg/max) = 9.309 | 9.309 | 9.309 Mbytes
Step Temp PotEng TotEng Press Volume 
      38            0 8.6329087e+20 8.6329087e+20 1.1990151e+20        172.8 
      39            0 8.6329087e+20 8.6329087e+20 1.1990151e+20        172.8 
Loop time of 0.0003525 on 1 procs for 1 steps with 2 atoms

Performance: 490212.767 tau/day, 2836.879 timesteps/s
0.0% CPU use with 1 MPI tasks x no OpenMP threads

MPI task timing breakdown:
Section |  min time  |  avg time  |  max time  |%varavg| %total
---------------------------------------------------------------
Pair    | 4.1e-06    | 4.1e-06    | 4.1e-06    |   0.0 |  1.16
Neigh   | 0          | 0          | 0          |   0.0 |  0.00
Comm    | 4.8e-06    | 4.8e-06    | 4.8e-06    |   0.0 |  1.36
Output  | 0.0003258  | 0.0003258  | 0.0003258  |   0.0 | 92.43
Modify  | 3.5e-06    | 3.5e-06    | 3.5e-06    |   0.0 |  0.99
Other   |            | 1.43e-05   |            |       |  4.06

Nlocal:    2 ave 2 max 2 min
Histogram: 1 0 0 0 0 0 0 0 0 0
Nghost:    52 ave 52 max 52 min
Histogram: 1 0 0 0 0 0 0 0 0 0
Neighs:    1 ave 1 max 1 min
Histogram: 1 0 0 0 0 0 0 0 0 0

Total # of neighbors = 1
Ave neighs/atom = 0.5
Neighbor list builds = 0
Dangerous builds = 0
#write_dump all custom dump.n$n.atom id type x y z fx fy fz
undump 1
next n
jump SELF loop
variable d equal $n*0.00001
variable d equal 40*0.00001

displace_atoms move move $d $d $d units box
displace_atoms move move 0.0004 $d $d units box
displace_atoms move move 0.0004 0.0004 $d units box
displace_atoms move move 0.0004 0.0004 0.0004 units box
compute $n all pe/atom
compute 40 all pe/atom
dump 1 all custom 1 dump.n$n.atom id type x y z fx fy fz c_$n
dump 1 all custom 1 dump.n40.atom id type x y z fx fy fz c_$n
dump 1 all custom 1 dump.n40.atom id type x y z fx fy fz c_40
run 1
WARNING: No fixes defined, atoms won't move (../verlet.cpp:52)
Per MPI rank memory allocation (min/avg/max) = 9.434 | 9.434 | 9.434 Mbytes
Step Temp PotEng TotEng Press Volume 
      39            0 8.0554647e+20 8.0554647e+20 1.1188145e+20        172.8 
      40            0 8.0554647e+20 8.0554647e+20 1.1188145e+20        172.8 
Loop time of 0.0002809 on 1 procs for 1 steps with 2 atoms

Performance: 615165.540 tau/day, 3559.986 timesteps/s
0.0% CPU use with 1 MPI tasks x no OpenMP threads

MPI task timing breakdown:
Section |  min time  |  avg time  |  max time  |%varavg| %total
---------------------------------------------------------------
Pair    | 4.5e-06    | 4.5e-06    | 4.5e-06    |   0.0 |  1.60
Neigh   | 0          | 0          | 0          |   0.0 |  0.00
Comm    | 5.3e-06    | 5.3e-06    | 5.3e-06    |   0.0 |  1.89
Output  | 0.0002368  | 0.0002368  | 0.0002368  |   0.0 | 84.30
Modify  | 3.7e-06    | 3.7e-06    | 3.7e-06    |   0.0 |  1.32
Other   |            | 3.06e-05   |            |       | 10.89

Nlocal:    2 ave 2 max 2 min
Histogram: 1 0 0 0 0 0 0 0 0 0
Nghost:    52 ave 52 max 52 min
Histogram: 1 0 0 0 0 0 0 0 0 0
Neighs:    1 ave 1 max 1 min
Histogram: 1 0 0 0 0 0 0 0 0 0

Total # of neighbors = 1
Ave neighs/atom = 0.5
Neighbor list builds = 0
Dangerous builds = 0
#write_dump all custom dump.n$n.atom id type x y z fx fy fz
undump 1
next n
jump SELF loop
variable d equal $n*0.00001
variable d equal 41*0.00001

displace_atoms move move $d $d $d units box
displace_atoms move move 0.00041 $d $d units box
displace_atoms move move 0.00041 0.00041 $d units box
displace_atoms move move 0.00041 0.00041 0.00041 units box
compute $n all pe/atom
compute 41 all pe/atom
dump 1 all custom 1 dump.n$n.atom id type x y z fx fy fz c_$n
dump 1 all custom 1 dump.n41.atom id type x y z fx fy fz c_$n
dump 1 all custom 1 dump.n41.atom id type x y z fx fy fz c_41
run 1
WARNING: No fixes defined, atoms won't move (../verlet.cpp:52)
Per MPI rank memory allocation (min/avg/max) = 9.559 | 9.559 | 9.559 Mbytes
Step Temp PotEng TotEng Press Volume 
      40            0 7.5046816e+20 7.5046816e+20 1.0423169e+20        172.8 
      41            0 7.5046816e+20 7.5046816e+20 1.0423169e+20        172.8 
Loop time of 0.0002458 on 1 procs for 1 steps with 2 atoms

Performance: 703010.573 tau/day, 4068.348 timesteps/s
0.0% CPU use with 1 MPI tasks x no OpenMP threads

MPI task timing breakdown:
Section |  min time  |  avg time  |  max time  |%varavg| %total
---------------------------------------------------------------
Pair    | 5.1e-06    | 5.1e-06    | 5.1e-06    |   0.0 |  2.07
Neigh   | 0          | 0          | 0          |   0.0 |  0.00
Comm    | 6e-06      | 6e-06      | 6e-06      |   0.0 |  2.44
Output  | 0.0002133  | 0.0002133  | 0.0002133  |   0.0 | 86.78
Modify  | 4.2e-06    | 4.2e-06    | 4.2e-06    |   0.0 |  1.71
Other   |            | 1.72e-05   |            |       |  7.00

Nlocal:    2 ave 2 max 2 min
Histogram: 1 0 0 0 0 0 0 0 0 0
Nghost:    52 ave 52 max 52 min
Histogram: 1 0 0 0 0 0 0 0 0 0
Neighs:    1 ave 1 max 1 min
Histogram: 1 0 0 0 0 0 0 0 0 0

Total # of neighbors = 1
Ave neighs/atom = 0.5
Neighbor list builds = 0
Dangerous builds = 0
#write_dump all custom dump.n$n.atom id type x y z fx fy fz
undump 1
next n
jump SELF loop
variable d equal $n*0.00001
variable d equal 42*0.00001

displace_atoms move move $d $d $d units box
displace_atoms move move 0.00042 $d $d units box
displace_atoms move move 0.00042 0.00042 $d units box
displace_atoms move move 0.00042 0.00042 0.00042 units box
compute $n all pe/atom
compute 42 all pe/atom
dump 1 all custom 1 dump.n$n.atom id type x y z fx fy fz c_$n
dump 1 all custom 1 dump.n42.atom id type x y z fx fy fz c_$n
dump 1 all custom 1 dump.n42.atom id type x y z fx fy fz c_42
run 1
WARNING: No fixes defined, atoms won't move (../verlet.cpp:52)
Per MPI rank memory allocation (min/avg/max) = 9.684 | 9.684 | 9.684 Mbytes
Step Temp PotEng TotEng Press Volume 
      41            0 6.9804973e+20 6.9804973e+20 9.6951351e+19        172.8 
      42            0 6.9804973e+20 6.9804973e+20 9.6951351e+19        172.8 
[...]

MPI task timing breakdown:
Section |  min time  |  avg time  |  max time  |%varavg| %total
---------------------------------------------------------------
Pair    | 3.5e-06    | 3.5e-06    | 3.5e-06    |   0.0 |  1.21
Neigh   | 0          | 0          | 0          |   0.0 |  0.00
Comm    | 4.9e-06    | 4.9e-06    | 4.9e-06    |   0.0 |  1.69
Output  | 0.0002256  | 0.0002256  | 0.0002256  |   0.0 | 77.85
Modify  | 4.1e-06    | 4.1e-06    | 4.1e-06    |   0.0 |  1.41
Other   |            | 5.17e-05   |            |       | 17.84

Nlocal:    2 ave 2 max 2 min
Histogram: 1 0 0 0 0 0 0 0 0 0
Nghost:    52 ave 52 max 52 min
Histogram: 1 0 0 0 0 0 0 0 0 0
Neighs:    1 ave 1 max 1 min
Histogram: 1 0 0 0 0 0 0 0 0 0

Total # of neighbors = 1
Ave neighs/atom = 0.5
Neighbor list builds = 0
Dangerous builds = 0
#write_dump all custom dump.n$n.atom id type x y z fx fy fz
undump 1
next n
jump SELF loop
variable d equal $n*0.00001
variable d equal 991*0.00001

displace_atoms move move $d $d $d units box
displace_atoms move move 0.00991 $d $d units box
displace_atoms move move 0.00991 0.00991 $d units box
displace_atoms move move 0.00991 0.00991 0.00991 units box
compute $n all pe/atom
compute 991 all pe/atom
dump 1 all custom 1 dump.n$n.atom id type x y z fx fy fz c_$n
dump 1 all custom 1 dump.n991.atom id type x y z fx fy fz c_$n
dump 1 all custom 1 dump.n991.atom id type x y z fx fy fz c_991
run 1
WARNING: No fixes defined, atoms won't move (../verlet.cpp:52)
Per MPI rank memory allocation (min/avg/max) = 128.3 | 128.3 | 128.3 Mbytes
Step Temp PotEng TotEng Press Volume 
     990            0 4.9954406e+08 4.9954406e+08     69381120        172.8 
     991            0 4.9954406e+08 4.9954406e+08     69381120        172.8 
Loop time of 0.0002817 on 1 procs for 1 steps with 2 atoms

Performance: 613418.518 tau/day, 3549.876 timesteps/s
0.0% CPU use with 1 MPI tasks x no OpenMP threads

MPI task timing breakdown:
Section |  min time  |  avg time  |  max time  |%varavg| %total
---------------------------------------------------------------
Pair    | 4.3e-06    | 4.3e-06    | 4.3e-06    |   0.0 |  1.53
Neigh   | 0          | 0          | 0          |   0.0 |  0.00
Comm    | 4.7e-06    | 4.7e-06    | 4.7e-06    |   0.0 |  1.67
Output  | 0.0001993  | 0.0001993  | 0.0001993  |   0.0 | 70.75
Modify  | 4e-06      | 4e-06      | 4e-06      |   0.0 |  1.42
Other   |            | 6.94e-05   |            |       | 24.64

Nlocal:    2 ave 2 max 2 min
Histogram: 1 0 0 0 0 0 0 0 0 0
Nghost:    52 ave 52 max 52 min
Histogram: 1 0 0 0 0 0 0 0 0 0
Neighs:    1 ave 1 max 1 min
Histogram: 1 0 0 0 0 0 0 0 0 0

Total # of neighbors = 1
Ave neighs/atom = 0.5
Neighbor list builds = 0
Dangerous builds = 0
#write_dump all custom dump.n$n.atom id type x y z fx fy fz
undump 1
next n
jump SELF loop
variable d equal $n*0.00001
variable d equal 992*0.00001

displace_atoms move move $d $d $d units box
displace_atoms move move 0.00992 $d $d units box
displace_atoms move move 0.00992 0.00992 $d units box
displace_atoms move move 0.00992 0.00992 0.00992 units box
compute $n all pe/atom
compute 992 all pe/atom
dump 1 all custom 1 dump.n$n.atom id type x y z fx fy fz c_$n
dump 1 all custom 1 dump.n992.atom id type x y z fx fy fz c_$n
dump 1 all custom 1 dump.n992.atom id type x y z fx fy fz c_992
run 1
WARNING: No fixes defined, atoms won't move (../verlet.cpp:52)
Per MPI rank memory allocation (min/avg/max) = 128.4 | 128.4 | 128.4 Mbytes
Step Temp PotEng TotEng Press Volume 
     991            0 1.1055053e+09 1.1055053e+09 1.535424e+08        172.8 
     992            0 1.1055053e+09 1.1055053e+09 1.535424e+08        172.8 
Loop time of 0.0002619 on 1 procs for 1 steps with 2 atoms

Performance: 659793.813 tau/day, 3818.251 timesteps/s
0.0% CPU use with 1 MPI tasks x no OpenMP threads

MPI task timing breakdown:
Section |  min time  |  avg time  |  max time  |%varavg| %total
---------------------------------------------------------------
Pair    | 3.8e-06    | 3.8e-06    | 3.8e-06    |   0.0 |  1.45
Neigh   | 0          | 0          | 0          |   0.0 |  0.00
Comm    | 4.5e-06    | 4.5e-06    | 4.5e-06    |   0.0 |  1.72
Output  | 0.0002039  | 0.0002039  | 0.0002039  |   0.0 | 77.85
Modify  | 3.5e-06    | 3.5e-06    | 3.5e-06    |   0.0 |  1.34
Other   |            | 4.62e-05   |            |       | 17.64

Nlocal:    2 ave 2 max 2 min
Histogram: 1 0 0 0 0 0 0 0 0 0
Nghost:    52 ave 52 max 52 min
Histogram: 1 0 0 0 0 0 0 0 0 0
Neighs:    1 ave 1 max 1 min
Histogram: 1 0 0 0 0 0 0 0 0 0

Total # of neighbors = 1
Ave neighs/atom = 0.5
Neighbor list builds = 0
Dangerous builds = 0
#write_dump all custom dump.n$n.atom id type x y z fx fy fz
undump 1
next n
jump SELF loop
variable d equal $n*0.00001
variable d equal 993*0.00001

displace_atoms move move $d $d $d units box
displace_atoms move move 0.00993 $d $d units box
displace_atoms move move 0.00993 0.00993 $d units box
displace_atoms move move 0.00993 0.00993 0.00993 units box
compute $n all pe/atom
compute 993 all pe/atom
dump 1 all custom 1 dump.n$n.atom id type x y z fx fy fz c_$n
dump 1 all custom 1 dump.n993.atom id type x y z fx fy fz c_$n
dump 1 all custom 1 dump.n993.atom id type x y z fx fy fz c_993
run 1
WARNING: No fixes defined, atoms won't move (../verlet.cpp:52)
Per MPI rank memory allocation (min/avg/max) = 128.6 | 128.6 | 128.6 Mbytes
Step Temp PotEng TotEng Press Volume 
     992            0 2.4928258e+09 2.4928258e+09 3.4622581e+08        172.8 
     993            0 2.4928258e+09 2.4928258e+09 3.4622581e+08        172.8 
Loop time of 0.0002447 on 1 procs for 1 steps with 2 atoms

Performance: 706170.820 tau/day, 4086.637 timesteps/s
0.0% CPU use with 1 MPI tasks x no OpenMP threads

MPI task timing breakdown:
Section |  min time  |  avg time  |  max time  |%varavg| %total
---------------------------------------------------------------
Pair    | 4e-06      | 4e-06      | 4e-06      |   0.0 |  1.63
Neigh   | 0          | 0          | 0          |   0.0 |  0.00
Comm    | 4.7e-06    | 4.7e-06    | 4.7e-06    |   0.0 |  1.92
Output  | 0.0001976  | 0.0001976  | 0.0001976  |   0.0 | 80.75
Modify  | 3.6e-06    | 3.6e-06    | 3.6e-06    |   0.0 |  1.47
Other   |            | 3.48e-05   |            |       | 14.22

Nlocal:    2 ave 2 max 2 min
Histogram: 1 0 0 0 0 0 0 0 0 0
Nghost:    52 ave 52 max 52 min
Histogram: 1 0 0 0 0 0 0 0 0 0
Neighs:    1 ave 1 max 1 min
Histogram: 1 0 0 0 0 0 0 0 0 0

Total # of neighbors = 1
Ave neighs/atom = 0.5
Neighbor list builds = 0
Dangerous builds = 0
#write_dump all custom dump.n$n.atom id type x y z fx fy fz
undump 1
next n
jump SELF loop
variable d equal $n*0.00001
variable d equal 994*0.00001

displace_atoms move move $d $d $d units box
displace_atoms move move 0.00994 $d $d units box
displace_atoms move move 0.00994 0.00994 $d units box
displace_atoms move move 0.00994 0.00994 0.00994 units box
compute $n all pe/atom
compute 994 all pe/atom
dump 1 all custom 1 dump.n$n.atom id type x y z fx fy fz c_$n
dump 1 all custom 1 dump.n994.atom id type x y z fx fy fz c_$n
dump 1 all custom 1 dump.n994.atom id type x y z fx fy fz c_994
run 1
WARNING: No fixes defined, atoms won't move (../verlet.cpp:52)
Per MPI rank memory allocation (min/avg/max) = 128.7 | 128.7 | 128.7 Mbytes
Step Temp PotEng TotEng Press Volume 
     993            0 5.7326022e+09 5.7326022e+09 7.9619474e+08        172.8 
     994            0 5.7326022e+09 5.7326022e+09 7.9619474e+08        172.8 
Loop time of 0.0002613 on 1 procs for 1 steps with 2 atoms

Performance: 661308.832 tau/day, 3827.019 timesteps/s
0.0% CPU use with 1 MPI tasks x no OpenMP threads

MPI task timing breakdown:
Section |  min time  |  avg time  |  max time  |%varavg| %total
---------------------------------------------------------------
Pair    | 1.72e-05   | 1.72e-05   | 1.72e-05   |   0.0 |  6.58
Neigh   | 0          | 0          | 0          |   0.0 |  0.00
Comm    | 4.6e-06    | 4.6e-06    | 4.6e-06    |   0.0 |  1.76
Output  | 0.0002041  | 0.0002041  | 0.0002041  |   0.0 | 78.11
Modify  | 3.4e-06    | 3.4e-06    | 3.4e-06    |   0.0 |  1.30
Other   |            | 3.2e-05    |            |       | 12.25

Nlocal:    2 ave 2 max 2 min
Histogram: 1 0 0 0 0 0 0 0 0 0
Nghost:    52 ave 52 max 52 min
Histogram: 1 0 0 0 0 0 0 0 0 0
Neighs:    1 ave 1 max 1 min
Histogram: 1 0 0 0 0 0 0 0 0 0

Total # of neighbors = 1
Ave neighs/atom = 0.5
Neighbor list builds = 0
Dangerous builds = 0
#write_dump all custom dump.n$n.atom id type x y z fx fy fz
undump 1
next n
jump SELF loop
variable d equal $n*0.00001
variable d equal 995*0.00001

displace_atoms move move $d $d $d units box
displace_atoms move move 0.00995 $d $d units box
displace_atoms move move 0.00995 0.00995 $d units box
displace_atoms move move 0.00995 0.00995 0.00995 units box
compute $n all pe/atom
compute 995 all pe/atom
dump 1 all custom 1 dump.n$n.atom id type x y z fx fy fz c_$n
dump 1 all custom 1 dump.n995.atom id type x y z fx fy fz c_$n
dump 1 all custom 1 dump.n995.atom id type x y z fx fy fz c_995
run 1
WARNING: No fixes defined, atoms won't move (../verlet.cpp:52)
Per MPI rank memory allocation (min/avg/max) = 128.8 | 128.8 | 128.8 Mbytes
Step Temp PotEng TotEng Press Volume 
     994            0 1.3457147e+10 1.3457147e+10 1.8690482e+09        172.8 
     995            0 1.3457147e+10 1.3457147e+10 1.8690482e+09        172.8 
Loop time of 0.0003029 on 1 procs for 1 steps with 2 atoms

Performance: 570485.309 tau/day, 3301.420 timesteps/s
0.0% CPU use with 1 MPI tasks x no OpenMP threads

MPI task timing breakdown:
Section |  min time  |  avg time  |  max time  |%varavg| %total
---------------------------------------------------------------
Pair    | 4.6e-06    | 4.6e-06    | 4.6e-06    |   0.0 |  1.52
Neigh   | 0          | 0          | 0          |   0.0 |  0.00
Comm    | 5.5e-06    | 5.5e-06    | 5.5e-06    |   0.0 |  1.82
Output  | 0.0002282  | 0.0002282  | 0.0002282  |   0.0 | 75.34
Modify  | 4.2e-06    | 4.2e-06    | 4.2e-06    |   0.0 |  1.39
Other   |            | 6.04e-05   |            |       | 19.94

Nlocal:    2 ave 2 max 2 min
Histogram: 1 0 0 0 0 0 0 0 0 0
Nghost:    52 ave 52 max 52 min
Histogram: 1 0 0 0 0 0 0 0 0 0
Neighs:    1 ave 1 max 1 min
Histogram: 1 0 0 0 0 0 0 0 0 0

Total # of neighbors = 1
Ave neighs/atom = 0.5
Neighbor list builds = 0
Dangerous builds = 0
#write_dump all custom dump.n$n.atom id type x y z fx fy fz
undump 1
next n
jump SELF loop
variable d equal $n*0.00001
variable d equal 996*0.00001

displace_atoms move move $d $d $d units box
displace_atoms move move 0.00996 $d $d units box
displace_atoms move move 0.00996 0.00996 $d units box
displace_atoms move move 0.00996 0.00996 0.00996 units box
compute $n all pe/atom
compute 996 all pe/atom
dump 1 all custom 1 dump.n$n.atom id type x y z fx fy fz c_$n
dump 1 all custom 1 dump.n996.atom id type x y z fx fy fz c_$n
dump 1 all custom 1 dump.n996.atom id type x y z fx fy fz c_996
run 1
WARNING: No fixes defined, atoms won't move (../verlet.cpp:52)
Per MPI rank memory allocation (min/avg/max) = 128.9 | 128.9 | 128.9 Mbytes
Step Temp PotEng TotEng Press Volume 
     995            0 3.2280394e+10 3.2280394e+10 4.483388e+09        172.8 
     996            0 3.2280394e+10 3.2280394e+10 4.483388e+09        172.8 
Loop time of 0.0002702 on 1 procs for 1 steps with 2 atoms

Performance: 639526.281 tau/day, 3700.962 timesteps/s
0.0% CPU use with 1 MPI tasks x no OpenMP threads

MPI task timing breakdown:
Section |  min time  |  avg time  |  max time  |%varavg| %total
---------------------------------------------------------------
Pair    | 4e-06      | 4e-06      | 4e-06      |   0.0 |  1.48
Neigh   | 0          | 0          | 0          |   0.0 |  0.00
Comm    | 4.8e-06    | 4.8e-06    | 4.8e-06    |   0.0 |  1.78
Output  | 0.0002232  | 0.0002232  | 0.0002232  |   0.0 | 82.61
Modify  | 3.5e-06    | 3.5e-06    | 3.5e-06    |   0.0 |  1.30
Other   |            | 3.47e-05   |            |       | 12.84

Nlocal:    2 ave 2 max 2 min
Histogram: 1 0 0 0 0 0 0 0 0 0
Nghost:    52 ave 52 max 52 min
Histogram: 1 0 0 0 0 0 0 0 0 0
Neighs:    1 ave 1 max 1 min
Histogram: 1 0 0 0 0 0 0 0 0 0

Total # of neighbors = 1
Ave neighs/atom = 0.5
Neighbor list builds = 0
Dangerous builds = 0
#write_dump all custom dump.n$n.atom id type x y z fx fy fz
undump 1
next n
jump SELF loop
variable d equal $n*0.00001
variable d equal 997*0.00001

displace_atoms move move $d $d $d units box
displace_atoms move move 0.00997 $d $d units box
displace_atoms move move 0.00997 0.00997 $d units box
displace_atoms move move 0.00997 0.00997 0.00997 units box
compute $n all pe/atom
compute 997 all pe/atom
dump 1 all custom 1 dump.n$n.atom id type x y z fx fy fz c_$n
dump 1 all custom 1 dump.n997.atom id type x y z fx fy fz c_$n
dump 1 all custom 1 dump.n997.atom id type x y z fx fy fz c_997
run 1
WARNING: No fixes defined, atoms won't move (../verlet.cpp:52)
Per MPI rank memory allocation (min/avg/max) = 129.1 | 129.1 | 129.1 Mbytes
Step Temp PotEng TotEng Press Volume 
     996            0 7.9211154e+10 7.9211154e+10 1.1001549e+10        172.8 
     997            0 7.9211154e+10 7.9211154e+10 1.1001549e+10        172.8 
Loop time of 0.0002465 on 1 procs for 1 steps with 2 atoms

Performance: 701014.199 tau/day, 4056.795 timesteps/s
0.0% CPU use with 1 MPI tasks x no OpenMP threads

MPI task timing breakdown:
Section |  min time  |  avg time  |  max time  |%varavg| %total
---------------------------------------------------------------
Pair    | 3.5e-06    | 3.5e-06    | 3.5e-06    |   0.0 |  1.42
Neigh   | 0          | 0          | 0          |   0.0 |  0.00
Comm    | 4.6e-06    | 4.6e-06    | 4.6e-06    |   0.0 |  1.87
Output  | 0.0001958  | 0.0001958  | 0.0001958  |   0.0 | 79.43
Modify  | 4.1e-06    | 4.1e-06    | 4.1e-06    |   0.0 |  1.66
Other   |            | 3.85e-05   |            |       | 15.62

Nlocal:    2 ave 2 max 2 min
Histogram: 1 0 0 0 0 0 0 0 0 0
Nghost:    52 ave 52 max 52 min
Histogram: 1 0 0 0 0 0 0 0 0 0
Neighs:    1 ave 1 max 1 min
Histogram: 1 0 0 0 0 0 0 0 0 0

Total # of neighbors = 1
Ave neighs/atom = 0.5
Neighbor list builds = 0
Dangerous builds = 0
#write_dump all custom dump.n$n.atom id type x y z fx fy fz
undump 1
next n
jump SELF loop
variable d equal $n*0.00001
variable d equal 998*0.00001

displace_atoms move move $d $d $d units box
displace_atoms move move 0.00998 $d $d units box
displace_atoms move move 0.00998 0.00998 $d units box
displace_atoms move move 0.00998 0.00998 0.00998 units box
compute $n all pe/atom
compute 998 all pe/atom
dump 1 all custom 1 dump.n$n.atom id type x y z fx fy fz c_$n
dump 1 all custom 1 dump.n998.atom id type x y z fx fy fz c_$n
dump 1 all custom 1 dump.n998.atom id type x y z fx fy fz c_998
run 1
WARNING: No fixes defined, atoms won't move (../verlet.cpp:52)
Per MPI rank memory allocation (min/avg/max) = 129.2 | 129.2 | 129.2 Mbytes
Step Temp PotEng TotEng Press Volume 
     997            0 1.9907192e+11 1.9907192e+11 2.7648877e+10        172.8 
     998            0 1.9907192e+11 1.9907192e+11 2.7648877e+10        172.8 
Loop time of 0.0002465 on 1 procs for 1 steps with 2 atoms

Performance: 701014.199 tau/day, 4056.795 timesteps/s
0.0% CPU use with 1 MPI tasks x no OpenMP threads

MPI task timing breakdown:
Section |  min time  |  avg time  |  max time  |%varavg| %total
---------------------------------------------------------------
Pair    | 3.2e-06    | 3.2e-06    | 3.2e-06    |   0.0 |  1.30
Neigh   | 0          | 0          | 0          |   0.0 |  0.00
Comm    | 4.4e-06    | 4.4e-06    | 4.4e-06    |   0.0 |  1.78
Output  | 0.0001961  | 0.0001961  | 0.0001961  |   0.0 | 79.55
Modify  | 4.2e-06    | 4.2e-06    | 4.2e-06    |   0.0 |  1.70
Other   |            | 3.86e-05   |            |       | 15.66

Nlocal:    2 ave 2 max 2 min
Histogram: 1 0 0 0 0 0 0 0 0 0
Nghost:    52 ave 52 max 52 min
Histogram: 1 0 0 0 0 0 0 0 0 0
Neighs:    1 ave 1 max 1 min
Histogram: 1 0 0 0 0 0 0 0 0 0

Total # of neighbors = 1
Ave neighs/atom = 0.5
Neighbor list builds = 0
Dangerous builds = 0
#write_dump all custom dump.n$n.atom id type x y z fx fy fz
undump 1
next n
jump SELF loop
variable d equal $n*0.00001
variable d equal 999*0.00001

displace_atoms move move $d $d $d units box
displace_atoms move move 0.00999 $d $d units box
displace_atoms move move 0.00999 0.00999 $d units box
displace_atoms move move 0.00999 0.00999 0.00999 units box
compute $n all pe/atom
compute 999 all pe/atom
dump 1 all custom 1 dump.n$n.atom id type x y z fx fy fz c_$n
dump 1 all custom 1 dump.n999.atom id type x y z fx fy fz c_$n
dump 1 all custom 1 dump.n999.atom id type x y z fx fy fz c_999
run 1
WARNING: No fixes defined, atoms won't move (../verlet.cpp:52)
Per MPI rank memory allocation (min/avg/max) = 129.3 | 129.3 | 129.3 Mbytes
Step Temp PotEng TotEng Press Volume 
     998            0 5.1305697e+11 5.1305697e+11 7.1257913e+10        172.8 
     999            0 5.1305697e+11 5.1305697e+11 7.1257913e+10        172.8 
Loop time of 0.0002896 on 1 procs for 1 steps with 2 atoms

Performance: 596685.082 tau/day, 3453.039 timesteps/s
0.0% CPU use with 1 MPI tasks x no OpenMP threads

MPI task timing breakdown:
Section |  min time  |  avg time  |  max time  |%varavg| %total
---------------------------------------------------------------
Pair    | 4.4e-06    | 4.4e-06    | 4.4e-06    |   0.0 |  1.52
Neigh   | 0          | 0          | 0          |   0.0 |  0.00
Comm    | 5.2e-06    | 5.2e-06    | 5.2e-06    |   0.0 |  1.80
Output  | 0.0002138  | 0.0002138  | 0.0002138  |   0.0 | 73.83
Modify  | 4.3e-06    | 4.3e-06    | 4.3e-06    |   0.0 |  1.48
Other   |            | 6.19e-05   |            |       | 21.37

Nlocal:    2 ave 2 max 2 min
Histogram: 1 0 0 0 0 0 0 0 0 0
Nghost:    52 ave 52 max 52 min
Histogram: 1 0 0 0 0 0 0 0 0 0
Neighs:    1 ave 1 max 1 min
Histogram: 1 0 0 0 0 0 0 0 0 0

Total # of neighbors = 1
Ave neighs/atom = 0.5
Neighbor list builds = 0
Dangerous builds = 0
#write_dump all custom dump.n$n.atom id type x y z fx fy fz
undump 1
next n
jump SELF loop
variable d equal $n*0.00001
variable d equal 1000*0.00001

displace_atoms move move $d $d $d units box
displace_atoms move move 0.01 $d $d units box
displace_atoms move move 0.01 0.01 $d units box
displace_atoms move move 0.01 0.01 0.01 units box
compute $n all pe/atom
compute 1000 all pe/atom
dump 1 all custom 1 dump.n$n.atom id type x y z fx fy fz c_$n
dump 1 all custom 1 dump.n1000.atom id type x y z fx fy fz c_$n
dump 1 all custom 1 dump.n1000.atom id type x y z fx fy fz c_1000
run 1
WARNING: No fixes defined, atoms won't move (../verlet.cpp:52)
Per MPI rank memory allocation (min/avg/max) = 129.4 | 129.4 | 129.4 Mbytes
Step Temp PotEng TotEng Press Volume 
     999            0 1.3578595e+12 1.3578595e+12 1.8859159e+11        172.8 
    1000            0 1.3578595e+12 1.3578595e+12 1.8859159e+11        172.8 
Loop time of 0.000271 on 1 procs for 1 steps with 2 atoms

Performance: 637638.383 tau/day, 3690.037 timesteps/s
0.0% CPU use with 1 MPI tasks x no OpenMP threads

MPI task timing breakdown:
Section |  min time  |  avg time  |  max time  |%varavg| %total
---------------------------------------------------------------
Pair    | 3.4e-06    | 3.4e-06    | 3.4e-06    |   0.0 |  1.25
Neigh   | 0          | 0          | 0          |   0.0 |  0.00
Comm    | 4.7e-06    | 4.7e-06    | 4.7e-06    |   0.0 |  1.73
Output  | 0.0001958  | 0.0001958  | 0.0001958  |   0.0 | 72.25
Modify  | 1.73e-05   | 1.73e-05   | 1.73e-05   |   0.0 |  6.38
Other   |            | 4.98e-05   |            |       | 18.38

Nlocal:    2 ave 2 max 2 min
Histogram: 1 0 0 0 0 0 0 0 0 0
Nghost:    52 ave 52 max 52 min
Histogram: 1 0 0 0 0 0 0 0 0 0
Neighs:    1 ave 1 max 1 min
Histogram: 1 0 0 0 0 0 0 0 0 0

Total # of neighbors = 1
Ave neighs/atom = 0.5
Neighbor list builds = 0
Dangerous builds = 0
#write_dump all custom dump.n$n.atom id type x y z fx fy fz
undump 1
next n
jump SELF loop
Total wall time: 0:00:08
