LAMMPS data file via write_data, version 11 Aug 2017, timestep = 0

2 atoms
2 atom types

-2.7849533001676674e+00 2.7849533001676674e+00 xlo xhi
-2.7849533001676674e+00 2.7849533001676674e+00 ylo yhi
-2.7849533001676674e+00 2.7849533001676674e+00 zlo zhi

Masses

1 1
2 1

Atoms # atomic

1 2 0.0000000000000000e+00 0.0000000000000000e+00 0.0000000000000000e+00 0 0 0
2 2 0.2 0.2 0.2 0 0 0

Velocities

1 0.0000000000000000e+00 0.0000000000000000e+00 0.0000000000000000e+00
2 0.0000000000000000e+00 0.0000000000000000e+00 0.0000000000000000e+00
