ITEM: TIMESTEP
13
ITEM: NUMBER OF ATOMS
2
ITEM: BOX BOUNDS pp pp pp
-2.7849533001676674e+00 2.7849533001676674e+00
-2.7849533001676674e+00 2.7849533001676674e+00
-2.7849533001676674e+00 2.7849533001676674e+00
ITEM: ATOMS id type x y z fx fy fz 
1 1 0 0 0 -0.28635 -0.28635 -0.28635 
2 1 0.291 0.291 0.291 0.28635 0.28635 0.28635 
