ITEM: TIMESTEP
25
ITEM: NUMBER OF ATOMS
2
ITEM: BOX BOUNDS pp pp pp
-2.7849533001676674e+00 2.7849533001676674e+00
-2.7849533001676674e+00 2.7849533001676674e+00
-2.7849533001676674e+00 2.7849533001676674e+00
ITEM: ATOMS id type x y z fx fy fz 
1 1 0 0 0 -0.0523503 -0.0523503 -0.0523503 
2 1 0.525 0.525 0.525 0.0523503 0.0523503 0.0523503 
